# vtk DataFile Version 2.0
FEM, Created by Wutzow
ASCII
DATASET UNSTRUCTURED_GRID
POINTS 10 Float64
0 0 0
nan nan 0
nan nan 0
nan 0.01 0
0 3 0
nan nan 0
inf inf 0
0 6 0
-31.9058 1.25768 0
0 9 0

CELLS 1 11
10 0 3 9 1 2 6 8 7 4 5

CELL_TYPES 1
69

CELL_DATA 1
POINT_DATA 10
VECTORS Y Float64
0 0 0.0
nan nan 0.0
nan nan 0.0
nan 0.01 0.0
0 3 0.0
nan nan 0.0
inf inf 0.0
0 6 0.0
-31.9058 1.25768 0.0
0 9 0.0

CELL_DATA 1
POINT_DATA 10
VECTORS U Float64
0 0 0.0
nan nan 0.0
nan nan 0.0
nan 0.01 0.0
0 0 0.0
nan nan 0.0
inf inf 0.0
0 0 0.0
-34.9058 -4.74232 0.0
0 0 0.0

CELL_DATA 1
POINT_DATA 10
TENSORS E Float64
-4.46438e+14 -5.55478e+14  0.00
-5.55478e+14 -7.34904e+14  0.00
0.00 0.00  0.00
1.98417e+14 2.46879e+14  0.00
2.46879e+14 3.26624e+14  0.00
0.00 0.00  0.00
-1.98417e+14 -2.46879e+14  0.00
-2.46879e+14 -3.26624e+14  0.00
0.00 0.00  0.00
4.46438e+14 5.55478e+14  0.00
5.55478e+14 7.34904e+14  0.00
0.00 0.00  0.00
-1.48813e+14 -1.85159e+14  0.00
-1.85159e+14 -2.44968e+14  0.00
0.00 0.00  0.00
0.0848998 0.0622087  0.00
0.0622087 0.604966  0.00
0.00 0.00  0.00
1.48813e+14 1.85159e+14  0.00
1.85159e+14 2.44968e+14  0.00
0.00 0.00  0.00
5.56271e-309 0  0.00
0 0  0.00
0.00 0.00  0.00
0.111111 0  0.00
0 0  0.00
0.00 0.00  0.00
1.09652e-17 0  0.00
0 0  0.00
0.00 0.00  0.00


