# vtk DataFile Version 2.0
FEM, Created by Wutzow
ASCII
DATASET UNSTRUCTURED_GRID
POINTS 10 Float64
0 0 0
2.9985 -0.00169 0
6.00357 0.00338516 0
9 0.01 0
0 3 0
3 3 0
5.99643 2.9998 0
0 6 0
3.0015 5.99981 0
0 9 0

CELLS 1 11
10 0 3 9 1 2 6 8 7 4 5

CELL_TYPES 1
69

CELL_DATA 1
POINT_DATA 10
VECTORS Y Float64
0 0 0.0
2.9985 -0.00169 0.0
6.00357 0.00338516 0.0
9 0.01 0.0
0 3 0.0
3 3 0.0
5.99643 2.9998 0.0
0 6 0.0
3.0015 5.99981 0.0
0 9 0.0

CELL_DATA 1
POINT_DATA 10
VECTORS U Float64
0 0 0.0
-0.00150203 -0.00169 0.0
0.00356897 0.00338516 0.0
-4.85048e-06 0.01 0.0
0 0 0.0
3.44388e-06 1.00036e-08 0.0
-0.00356617 -0.000197647 0.0
0 0 0.0
0.00150046 -0.000185009 0.0
0 0 0.0

CELL_DATA 1
POINT_DATA 10
TENSORS E Float64
5.8595e+76 5.8595e+76  0.00
5.8595e+76 5.8595e+76  0.00
0.00 0.00  0.00

3.93218e+76 3.93218e+76  0.00
3.93218e+76 3.93218e+76  0.00
0.00 0.00  0.00

1.98736e+76 1.98736e+76  0.00
1.98736e+76 1.98736e+76  0.00
0.00 0.00  0.00

-8.5717e+76 -8.5717e+76  0.00
-8.5717e+76 -8.5717e+76  0.00
0.00 0.00  0.00

-1.00312e+77 -1.00312e+77  0.00
-1.00312e+77 -1.00312e+77  0.00
0.00 0.00  0.00

1.54321e-07 -0.000277778  0.00
-0.000277778 0  0.00
0.00 0.00  0.00

-2.21232e+77 -2.21232e+77  0.00
-2.21232e+77 -2.21232e+77  0.00
0.00 0.00  0.00

2.12468e-314 2.12468e-314  0.00
2.12468e-314 2.12468e-314  0.00
0.00 0.00  0.00

0 0  0.00
0 0  0.00
0.00 0.00  0.00

0 0  0.00
0 0  0.00
0.00 0.00  0.00


CELL_DATA 1
POINT_DATA 10
TENSORS S Float64
5.8595e+76 5.8595e+76  0.00
5.8595e+76 5.8595e+76  0.00
0.00 0.00  0.00

3.93218e+76 3.93218e+76  0.00
3.93218e+76 3.93218e+76  0.00
0.00 0.00  0.00

1.98736e+76 1.98736e+76  0.00
1.98736e+76 1.98736e+76  0.00
0.00 0.00  0.00

-8.5717e+76 -8.5717e+76  0.00
-8.5717e+76 -8.5717e+76  0.00
0.00 0.00  0.00

-1.00312e+77 -1.00312e+77  0.00
-1.00312e+77 -1.00312e+77  0.00
0.00 0.00  0.00

1.54321e-07 -0.000277778  0.00
-0.000277778 0  0.00
0.00 0.00  0.00

-2.21232e+77 -2.21232e+77  0.00
-2.21232e+77 -2.21232e+77  0.00
0.00 0.00  0.00

2.12468e-314 2.12468e-314  0.00
2.12468e-314 2.12468e-314  0.00
0.00 0.00  0.00

0 0  0.00
0 0  0.00
0.00 0.00  0.00

0 0  0.00
0 0  0.00
0.00 0.00  0.00


CELL_DATA 1
POINT_DATA 10
SCALARS ue float
LOOKUP_TABLE default
5.8595e+76
3.93218e+76
1.98736e+76
-8.5717e+76
-1.00312e+77
7.71605e-08
-2.21232e+77
2.12468e-314
0
0

