# vtk DataFile Version 2.0
FEM, Created by Wutzow
ASCII
DATASET UNSTRUCTURED_GRID
POINTS 10 Float64
0 0 0
nan nan 0
nan nan 0
nan 0.01 0
0 3 0
nan nan 0
nan nan 0
0 6 0
inf -inf 0
0 9 0

CELLS 1 11
10 0 3 9 1 2 6 8 7 4 5

CELL_TYPES 1
69

CELL_DATA 1
POINT_DATA 10
VECTORS Y Float64
0 0 0.0
nan nan 0.0
nan nan 0.0
nan 0.01 0.0
0 3 0.0
nan nan 0.0
nan nan 0.0
0 6 0.0
inf -inf 0.0
0 9 0.0

CELL_DATA 1
POINT_DATA 10
VECTORS U Float64
0 0 0.0
nan nan 0.0
nan nan 0.0
nan 0.01 0.0
0 0 0.0
nan nan 0.0
nan nan 0.0
0 0 0.0
inf -inf 0.0
0 0 0.0

CELL_DATA 1
POINT_DATA 10
TENSORS E Float64
-1.38159e+11 -2.62732e+10  0.00
-2.62732e+10 9.92224e+10  0.00
0.00 0.00  0.00

6.14042e+10 1.1677e+10  0.00
1.1677e+10 -4.40988e+10  0.00
0.00 0.00  0.00

-6.14042e+10 -1.1677e+10  0.00
-1.1677e+10 4.40988e+10  0.00
0.00 0.00  0.00

1.38159e+11 2.62732e+10  0.00
2.62732e+10 -9.92224e+10  0.00
0.00 0.00  0.00

-4.60532e+10 -8.75774e+09  0.00
-8.75774e+09 3.30741e+10  0.00
0.00 0.00  0.00

0.000251138 0.000378983  0.00
0.000378983 0.000250988  0.00
0.00 0.00  0.00

4.60532e+10 8.75774e+09  0.00
8.75774e+09 -3.30741e+10  0.00
0.00 0.00  0.00

0 0  0.00
0 0  0.00
0.00 0.00  0.00

0 0  0.00
0 0  0.00
0.00 0.00  0.00

-1.72723e-77 -1.72723e-77  0.00
-1.72723e-77 -1.72723e-77  0.00
0.00 0.00  0.00


CELL_DATA 1
POINT_DATA 10
TENSORS S Float64
-1.38159e+11 -2.62732e+10  0.00
-2.62732e+10 9.92224e+10  0.00
0.00 0.00  0.00

6.14042e+10 1.1677e+10  0.00
1.1677e+10 -4.40988e+10  0.00
0.00 0.00  0.00

-6.14042e+10 -1.1677e+10  0.00
-1.1677e+10 4.40988e+10  0.00
0.00 0.00  0.00

1.38159e+11 2.62732e+10  0.00
2.62732e+10 -9.92224e+10  0.00
0.00 0.00  0.00

-4.60532e+10 -8.75774e+09  0.00
-8.75774e+09 3.30741e+10  0.00
0.00 0.00  0.00

0.000251138 0.000378983  0.00
0.000378983 0.000250988  0.00
0.00 0.00  0.00

4.60532e+10 8.75774e+09  0.00
8.75774e+09 -3.30741e+10  0.00
0.00 0.00  0.00

0 0  0.00
0 0  0.00
0.00 0.00  0.00

0 0  0.00
0 0  0.00
0.00 0.00  0.00

-1.72723e-77 -1.72723e-77  0.00
-1.72723e-77 -1.72723e-77  0.00
0.00 0.00  0.00


CELL_DATA 1
POINT_DATA 10
SCALARS ue float
LOOKUP_TABLE default
-6.80716e+08
3.0254e+08
-3.0254e+08
6.80716e+08
-2.26905e+08
2.06661e-07
2.26905e+08
0
0
-1.72723e-77

