# vtk DataFile Version 2.0
FEM, Created by Wutzow
ASCII
DATASET UNSTRUCTURED_GRID
POINTS 10 Float64
0 0 0
2.90795 -0.00275387 0
5.98345 -0.0162502 0
8.32795 0.01 0
0 3 0
2.99113 2.73508 0
6.18785 3.18106 0
0 6 0
3.37288 8.90462 0
0 9 0

CELLS 1 11
10 0 3 9 1 2 6 8 7 4 5

CELL_TYPES 1
69

CELL_DATA 1
POINT_DATA 10
VECTORS Y Float64
0 0 0.0
2.90795 -0.00275387 0.0
5.98345 -0.0162502 0.0
8.32795 0.01 0.0
0 3 0.0
2.99113 2.73508 0.0
6.18785 3.18106 0.0
0 6 0.0
3.37288 8.90462 0.0
0 9 0.0

CELL_DATA 1
POINT_DATA 10
VECTORS U Float64
0 0 0.0
-0.0920458 -0.00275387 0.0
-0.0165526 -0.0162502 0.0
-0.672047 0.01 0.0
0 0 0.0
-0.00887159 -0.264916 0.0
0.187849 0.181063 0.0
0 0 0.0
0.372879 2.90462 0.0
0 0 0.0

CELL_DATA 1
POINT_DATA 10
TENSORS E Float64
-1.78398e+11 -1.05323e+12  0.00
-1.05323e+12 -1.37466e+12  0.00
0.00 0.00  0.00
7.92882e+10 4.68104e+11  0.00
4.68104e+11 6.10958e+11  0.00
0.00 0.00  0.00
-7.92882e+10 -4.68104e+11  0.00
-4.68104e+11 -6.10958e+11  0.00
0.00 0.00  0.00
1.78398e+11 1.05323e+12  0.00
1.05323e+12 1.37466e+12  0.00
0.00 0.00  0.00
-5.94662e+10 -3.51078e+11  0.00
-3.51078e+11 -4.58218e+11  0.00
0.00 0.00  0.00
-0.00196552 -0.00167476  0.00
-0.00167476 -0.00120277  0.00
0.00 0.00  0.00
5.94662e+10 3.51078e+11  0.00
3.51078e+11 4.58218e+11  0.00
0.00 0.00  0.00
5.56269e-309 5.56269e-309  0.00
5.56269e-309 5.56269e-309  0.00
0.00 0.00  0.00
0.111111 0.111111  0.00
0.111111 0.111111  0.00
0.00 0.00  0.00
3.36631e-15 3.36631e-15  0.00
3.36631e-15 3.36631e-15  0.00
0.00 0.00  0.00


