# vtk DataFile Version 2.0
FEM, Created by Wutzow
ASCII
DATASET UNSTRUCTURED_GRID
POINTS 25 Float64
0 0 0
2.08161 3.79665 0
-11.6621 -6.79007 0
10.5757 2.61651 0
4.20541 1.18945 0
0.410331 -6.80217 0
-46.7672 -10.8492 0
0 0.333333 0
-1.67602 -0.861135 0
43.116 9.4843 0
-37.4607 -8.8256 0
-0.681177 -5.81015 0
-4.9936 -0.675653 0
59.0799 13.7203 0
0 0.666667 0
6.7065 2.70588 0
-7.14791 -1.67406 0
31.9283 6.99833 0
-1.91891 -3.09764 0
-29.7132 -3.76642 0
15.9036 2.88588 0
0 1 0
-8.57332 -0.903518 0
13.3436 1.01432 0
-4.38744 -0.644678 0

CELLS 4 44
10 0 3 12 1 2 6 9 8 4 5
10 3 24 12 10 17 20 16 9 6 13
10 24 21 12 23 22 18 15 16 20 19
10 21 0 12 14 7 4 8 15 18 11

CELL_TYPES 4
69
69
69
69

CELL_DATA 4
POINT_DATA 25
VECTORS Y Float64
0 0 0.0
2.08161 3.79665 0.0
-11.6621 -6.79007 0.0
10.5757 2.61651 0.0
4.20541 1.18945 0.0
0.410331 -6.80217 0.0
-46.7672 -10.8492 0.0
0 0.333333 0.0
-1.67602 -0.861135 0.0
43.116 9.4843 0.0
-37.4607 -8.8256 0.0
-0.681177 -5.81015 0.0
-4.9936 -0.675653 0.0
59.0799 13.7203 0.0
0 0.666667 0.0
6.7065 2.70588 0.0
-7.14791 -1.67406 0.0
31.9283 6.99833 0.0
-1.91891 -3.09764 0.0
-29.7132 -3.76642 0.0
15.9036 2.88588 0.0
0 1 0.0
-8.57332 -0.903518 0.0
13.3436 1.01432 0.0
-4.38744 -0.644678 0.0

CELL_DATA 4
POINT_DATA 25
VECTORS U Float64
0 0 0.0
1.74827 3.79665 0.0
-12.3288 -6.79007 0.0
9.57574 2.61651 0.0
4.03874 1.02278 0.0
-0.0896695 -6.96883 0.0
-47.6005 -11.0159 0.0
0 0 0.0
-2.00935 -1.19447 0.0
42.4493 9.15097 0.0
-38.4607 -9.15894 0.0
-0.847844 -6.31015 0.0
-5.4936 -1.17565 0.0
58.2466 13.2203 0.0
0 0 0.0
6.37317 2.03921 0.0
-7.81458 -2.34073 0.0
30.9283 6.33166 0.0
-2.08558 -3.93097 0.0
-30.2132 -4.59976 0.0
15.0702 2.05254 0.0
0 0 0.0
-8.90665 -1.90352 0.0
12.6769 0.0143217 0.0
-5.38744 -1.64468 0.0

CELL_DATA 4
POINT_DATA 25
TENSORS E Float64
0.104025 0.3851  0.00
0.3851 -0.221945  0.00
0.00 0.00  0.00

0.141817 0.499245  0.00
0.499245 -0.180105  0.00
0.00 0.00  0.00

0.407205 0.877412  0.00
0.877412 -0.201437  0.00
0.00 0.00  0.00

0.0742089 0.188213  0.00
0.188213 -0.195122  0.00
0.00 0.00  0.00

0.668708 0.652816  0.00
0.652816 -0.253408  0.00
0.00 0.00  0.00

-0.0847062 0.0142632  0.00
0.0142632 -0.195324  0.00
0.00 0.00  0.00

0.849429 1.93555  0.00
1.93555 0.129183  0.00
0.00 0.00  0.00

2.04458 0.768674  0.00
0.768674 -0.717608  0.00
0.00 0.00  0.00

2.29558 0.697009  0.00
0.697009 -0.467769  0.00
0.00 0.00  0.00

3.19038 1.29443  0.00
1.29443 -0.823751  0.00
0.00 0.00  0.00

1.25043 0.670694  0.00
0.670694 -0.826298  0.00
0.00 0.00  0.00

1.84032 1.43812  0.00
1.43812 -1.40342  0.00
0.00 0.00  0.00

0.962469 0.3334  0.00
0.3334 -0.504022  0.00
0.00 0.00  0.00

5.30922 1.76165  0.00
1.76165 -0.0839122  0.00
0.00 0.00  0.00

-0.346188 0.0226793  0.00
0.0226793 1.60964  0.00
0.00 0.00  0.00

-0.517151 0.506711  0.00
0.506711 1.12692  0.00
0.00 0.00  0.00

-0.0769248 -0.0390822  0.00
-0.0390822 2.80603  0.00
0.00 0.00  0.00

-0.202662 -0.351197  0.00
-0.351197 1.69983  0.00
0.00 0.00  0.00

0.434499 -1.34268  0.00
-1.34268 4.38688  0.00
0.00 0.00  0.00

-0.490637 0.105079  0.00
0.105079 0.585556  0.00
0.00 0.00  0.00

-0.148119 1.54061  0.00
1.54061 2.61062  0.00
0.00 0.00  0.00

-0.836686 -0.168023  0.00
-0.168023 1.99822  0.00
0.00 0.00  0.00

-0.606522 0.0251592  0.00
0.0251592 1.99015  0.00
0.00 0.00  0.00

-1.0612 -0.0154785  0.00
-0.0154785 2.82664  0.00
0.00 0.00  0.00

-0.854267 -0.295694  0.00
-0.295694 1.58468  0.00
0.00 0.00  0.00


CELL_DATA 4
POINT_DATA 25
TENSORS S Float64
0.104025 0.3851  0.00
0.3851 -0.221945  0.00
0.00 0.00  0.00

0.141817 0.499245  0.00
0.499245 -0.180105  0.00
0.00 0.00  0.00

0.407205 0.877412  0.00
0.877412 -0.201437  0.00
0.00 0.00  0.00

0.0742089 0.188213  0.00
0.188213 -0.195122  0.00
0.00 0.00  0.00

0.668708 0.652816  0.00
0.652816 -0.253408  0.00
0.00 0.00  0.00

-0.0847062 0.0142632  0.00
0.0142632 -0.195324  0.00
0.00 0.00  0.00

0.849429 1.93555  0.00
1.93555 0.129183  0.00
0.00 0.00  0.00

2.04458 0.768674  0.00
0.768674 -0.717608  0.00
0.00 0.00  0.00

2.29558 0.697009  0.00
0.697009 -0.467769  0.00
0.00 0.00  0.00

3.19038 1.29443  0.00
1.29443 -0.823751  0.00
0.00 0.00  0.00

1.25043 0.670694  0.00
0.670694 -0.826298  0.00
0.00 0.00  0.00

1.84032 1.43812  0.00
1.43812 -1.40342  0.00
0.00 0.00  0.00

0.962469 0.3334  0.00
0.3334 -0.504022  0.00
0.00 0.00  0.00

5.30922 1.76165  0.00
1.76165 -0.0839122  0.00
0.00 0.00  0.00

-0.346188 0.0226793  0.00
0.0226793 1.60964  0.00
0.00 0.00  0.00

-0.517151 0.506711  0.00
0.506711 1.12692  0.00
0.00 0.00  0.00

-0.0769248 -0.0390822  0.00
-0.0390822 2.80603  0.00
0.00 0.00  0.00

-0.202662 -0.351197  0.00
-0.351197 1.69983  0.00
0.00 0.00  0.00

0.434499 -1.34268  0.00
-1.34268 4.38688  0.00
0.00 0.00  0.00

-0.490637 0.105079  0.00
0.105079 0.585556  0.00
0.00 0.00  0.00

-0.148119 1.54061  0.00
1.54061 2.61062  0.00
0.00 0.00  0.00

-0.836686 -0.168023  0.00
-0.168023 1.99822  0.00
0.00 0.00  0.00

-0.606522 0.0251592  0.00
0.0251592 1.99015  0.00
0.00 0.00  0.00

-1.0612 -0.0154785  0.00
-0.0154785 2.82664  0.00
0.00 0.00  0.00

-0.854267 -0.295694  0.00
-0.295694 1.58468  0.00
0.00 0.00  0.00


CELL_DATA 4
POINT_DATA 25
SCALARS ue float
LOOKUP_TABLE default
0.906634
1.18906
1.98756
0.472031
1.46891
0.115686
4.43213
1.95986
2.39735
3.60643
0.985426
1.97159
0.629376
7.07332
2.71939
1.62618
5.34285
2.98867
8.57591
0.567675
5.16743
1.80362
2.13661
3.04282
1.16601

