# vtk DataFile Version 2.0
FEM, Created by Wutzow
ASCII
DATASET UNSTRUCTURED_GRID
POINTS 25 Float64
0 0 0
1.43287 1.13189 0
-1.85255 0.34716 0
0.478671 -1.95327 0
3.68455 -2.99469 0
-8.97743 1.48873 0
-2.22231 9.11692 0
0 0.333333 0
-2.03728 1.57477 0
4.31048 -9.16952 0
-1.05634 6.51706 0
-1.31685 -3.75614 0
-2.53336 2.56305 0
1.45628 -12.2424 0
0 0.666667 0
3.29987 -1.52351 0
3.43772 -4.1606 0
1.18128 -4.39208 0
-0.743073 -1.57976 0
-3.24385 1.57508 0
-0.492047 2.01744 0
0 1 0
-0.574666 -1.26307 0
1.06927 0.753287 0
-0.059061 -0.0485815 0

CELLS 4 44
10 0 3 12 1 2 6 9 8 4 5
10 3 24 12 10 17 20 16 9 6 13
10 24 21 12 23 22 18 15 16 20 19
10 21 0 12 14 7 4 8 15 18 11

CELL_TYPES 4
69
69
69
69

CELL_DATA 4
POINT_DATA 25
VECTORS Y Float64
0 0 0.0
1.43287 1.13189 0.0
-1.85255 0.34716 0.0
0.478671 -1.95327 0.0
3.68455 -2.99469 0.0
-8.97743 1.48873 0.0
-2.22231 9.11692 0.0
0 0.333333 0.0
-2.03728 1.57477 0.0
4.31048 -9.16952 0.0
-1.05634 6.51706 0.0
-1.31685 -3.75614 0.0
-2.53336 2.56305 0.0
1.45628 -12.2424 0.0
0 0.666667 0.0
3.29987 -1.52351 0.0
3.43772 -4.1606 0.0
1.18128 -4.39208 0.0
-0.743073 -1.57976 0.0
-3.24385 1.57508 0.0
-0.492047 2.01744 0.0
0 1 0.0
-0.574666 -1.26307 0.0
1.06927 0.753287 0.0
-0.059061 -0.0485815 0.0

CELL_DATA 4
POINT_DATA 25
VECTORS U Float64
0 0 0.0
1.09954 1.13189 0.0
-2.51921 0.34716 0.0
-0.521329 -1.95327 0.0
3.51789 -3.16135 0.0
-9.47743 1.32206 0.0
-3.05564 8.95025 0.0
0 0 0.0
-2.37061 1.24144 0.0
3.64382 -9.50285 0.0
-2.05634 6.18373 0.0
-1.48352 -4.25614 0.0
-3.03336 2.06305 0.0
0.622949 -12.7424 0.0
0 0 0.0
2.96654 -2.19018 0.0
2.77105 -4.82726 0.0
0.181283 -5.05874 0.0
-0.90974 -2.41309 0.0
-3.74385 0.741747 0.0
-1.32538 1.18411 0.0
0 0 0.0
-0.907999 -2.26307 0.0
0.402601 -0.246713 0.0
-1.05906 -1.04858 0.0

CELL_DATA 4
POINT_DATA 25
TENSORS E Float64
11.1995 9.05446  0.00
9.05446 8.44201  0.00
0.00 0.00  0.00

11.2648 8.10421  0.00
8.10421 7.39848  0.00
0.00 0.00  0.00

23.7499 18.6199  0.00
18.6199 17.0624  0.00
0.00 0.00  0.00

2.94358 3.78631  0.00
3.78631 4.254  0.00
0.00 0.00  0.00

8.41989 9.59432  0.00
9.59432 10.5309  0.00
0.00 0.00  0.00

1.75094 1.93712  0.00
1.93712 1.99288  0.00
0.00 0.00  0.00

34.2878 23.9589  0.00
23.9589 21.8767  0.00
0.00 0.00  0.00

91.9345 73.3391  0.00
73.3391 67.7749  0.00
0.00 0.00  0.00

83.5312 68.028  0.00
68.028 57.3427  0.00
0.00 0.00  0.00

196.854 161.785  0.00
161.785 155.631  0.00
0.00 0.00  0.00

58.297 35.677  0.00
35.677 23.8271  0.00
0.00 0.00  0.00

182.347 114.997  0.00
114.997 82.5019  0.00
0.00 0.00  0.00

12.4049 8.62095  0.00
8.62095 6.19298  0.00
0.00 0.00  0.00

283.484 234.334  0.00
234.334 201.347  0.00
0.00 0.00  0.00

224.852 324.012  0.00
324.012 519.04  0.00
0.00 0.00  0.00

309.841 445.945  0.00
445.945 707.337  0.00
0.00 0.00  0.00

464.637 656.52  0.00
656.52 1041.01  0.00
0.00 0.00  0.00

48.3764 75.3602  0.00
75.3602 123.678  0.00
0.00 0.00  0.00

133.744 206.937  0.00
206.937 343.903  0.00
0.00 0.00  0.00

33.2543 50.1459  0.00
50.1459 80.7305  0.00
0.00 0.00  0.00

994.55 1395.6  0.00
1395.6 2171.56  0.00
0.00 0.00  0.00

415.171 263.263  0.00
263.263 201.678  0.00
0.00 0.00  0.00

495.897 294.306  0.00
294.306 206.165  0.00
0.00 0.00  0.00

827.735 510.893  0.00
510.893 374.153  0.00
0.00 0.00  0.00

125.239 113.168  0.00
113.168 118.588  0.00
0.00 0.00  0.00


CELL_DATA 4
POINT_DATA 25
TENSORS S Float64
11.1995 9.05446  0.00
9.05446 8.44201  0.00
0.00 0.00  0.00

11.2648 8.10421  0.00
8.10421 7.39848  0.00
0.00 0.00  0.00

23.7499 18.6199  0.00
18.6199 17.0624  0.00
0.00 0.00  0.00

2.94358 3.78631  0.00
3.78631 4.254  0.00
0.00 0.00  0.00

8.41989 9.59432  0.00
9.59432 10.5309  0.00
0.00 0.00  0.00

1.75094 1.93712  0.00
1.93712 1.99288  0.00
0.00 0.00  0.00

34.2878 23.9589  0.00
23.9589 21.8767  0.00
0.00 0.00  0.00

91.9345 73.3391  0.00
73.3391 67.7749  0.00
0.00 0.00  0.00

83.5312 68.028  0.00
68.028 57.3427  0.00
0.00 0.00  0.00

196.854 161.785  0.00
161.785 155.631  0.00
0.00 0.00  0.00

58.297 35.677  0.00
35.677 23.8271  0.00
0.00 0.00  0.00

182.347 114.997  0.00
114.997 82.5019  0.00
0.00 0.00  0.00

12.4049 8.62095  0.00
8.62095 6.19298  0.00
0.00 0.00  0.00

283.484 234.334  0.00
234.334 201.347  0.00
0.00 0.00  0.00

224.852 324.012  0.00
324.012 519.04  0.00
0.00 0.00  0.00

309.841 445.945  0.00
445.945 707.337  0.00
0.00 0.00  0.00

464.637 656.52  0.00
656.52 1041.01  0.00
0.00 0.00  0.00

48.3764 75.3602  0.00
75.3602 123.678  0.00
0.00 0.00  0.00

133.744 206.937  0.00
206.937 343.903  0.00
0.00 0.00  0.00

33.2543 50.1459  0.00
50.1459 80.7305  0.00
0.00 0.00  0.00

994.55 1395.6  0.00
1395.6 2171.56  0.00
0.00 0.00  0.00

415.171 263.263  0.00
263.263 201.678  0.00
0.00 0.00  0.00

495.897 294.306  0.00
294.306 206.165  0.00
0.00 0.00  0.00

827.735 510.893  0.00
510.893 374.153  0.00
0.00 0.00  0.00

125.239 113.168  0.00
113.168 118.588  0.00
0.00 0.00  0.00


CELL_DATA 4
POINT_DATA 25
SCALARS ue float
LOOKUP_TABLE default
1433.19
485.024
3578.79
262.202
1014.06
81.9576
1882.68
44006.1
33933.3
104146
10130.2
37152.5
3512.87
120963
498893
727154
1.01247e+06
64284.2
172246
72241.8
2.26076e+06
315619
414924
634513
53997.9

