# vtk DataFile Version 2.0
FEM, Created by Wutzow
ASCII
DATASET UNSTRUCTURED_GRID
POINTS 25 Float64
0 0 0
0.811339 0.942523 0
-11.9701 -4.67335 0
12.6485 4.07647 0
3.15919 -3.5995 0
7.97033 9.97175 0
-51.9206 -18.3574 0
0 0.333333 0
-1.71971 1.12058 0
44.0198 12.3713 0
-44.8376 -13.5629 0
-0.246144 -4.47974 0
-3.63863 3.3239 0
74.1631 26.6652 0
0 0.666667 0
4.83146 -2.75423 0
-2.06784 -5.62976 0
35.4223 10.9443 0
-1.3595 -1.51778 0
-15.6628 -4.39923 0
7.70158 3.76649 0
0 1 0
-3.4995 -6.75947 0
6.21979 6.75612 0
-2.27187 -1.26123 0

CELLS 4 44
10 0 3 12 1 2 6 9 8 4 5
10 3 24 12 10 17 20 16 9 6 13
10 24 21 12 23 22 18 15 16 20 19
10 21 0 12 14 7 4 8 15 18 11

CELL_TYPES 4
69
69
69
69

CELL_DATA 4
POINT_DATA 25
VECTORS Y Float64
0 0 0.0
0.811339 0.942523 0.0
-11.9701 -4.67335 0.0
12.6485 4.07647 0.0
3.15919 -3.5995 0.0
7.97033 9.97175 0.0
-51.9206 -18.3574 0.0
0 0.333333 0.0
-1.71971 1.12058 0.0
44.0198 12.3713 0.0
-44.8376 -13.5629 0.0
-0.246144 -4.47974 0.0
-3.63863 3.3239 0.0
74.1631 26.6652 0.0
0 0.666667 0.0
4.83146 -2.75423 0.0
-2.06784 -5.62976 0.0
35.4223 10.9443 0.0
-1.3595 -1.51778 0.0
-15.6628 -4.39923 0.0
7.70158 3.76649 0.0
0 1 0.0
-3.4995 -6.75947 0.0
6.21979 6.75612 0.0
-2.27187 -1.26123 0.0

CELL_DATA 4
POINT_DATA 25
VECTORS U Float64
0 0 0.0
0.478005 0.942523 0.0
-12.6367 -4.67335 0.0
11.6485 4.07647 0.0
2.99252 -3.76616 0.0
7.47033 9.80509 0.0
-52.7539 -18.5241 0.0
0 0 0.0
-2.05304 0.787251 0.0
43.3532 12.0379 0.0
-45.8376 -13.8962 0.0
-0.412811 -4.97974 0.0
-4.13863 2.8239 0.0
73.3298 26.1652 0.0
0 0 0.0
4.49812 -3.4209 0.0
-2.73451 -6.29643 0.0
34.4223 10.2777 0.0
-1.52617 -2.35112 0.0
-16.1628 -5.23257 0.0
6.86825 2.93316 0.0
0 0 0.0
-3.83283 -7.75947 0.0
5.55313 5.75612 0.0
-3.27187 -2.26123 0.0

CELL_DATA 4
POINT_DATA 25
TENSORS E Float64
0.944094 1.62382  0.00
1.62382 2.05582  0.00
0.00 0.00  0.00

0.926408 1.56076  0.00
1.56076 1.60651  0.00
0.00 0.00  0.00

1.5205 2.56355  0.00
2.56355 3.21651  0.00
0.00 0.00  0.00

0.792337 1.35158  0.00
1.35158 1.98982  0.00
0.00 0.00  0.00

1.73324 2.6574  0.00
2.6574 4.14919  0.00
0.00 0.00  0.00

0.442967 0.770912  0.00
0.770912 0.96561  0.00
0.00 0.00  0.00

2.0729 3.51981  0.00
3.51981 3.19681  0.00
0.00 0.00  0.00

2.21805 1.23362  0.00
1.23362 -0.21915  0.00
0.00 0.00  0.00

2.3324 1.01741  0.00
1.01741 -0.061771  0.00
0.00 0.00  0.00

3.38703 1.91495  0.00
1.91495 -0.0992014  0.00
0.00 0.00  0.00

1.53166 1.18344  0.00
1.18344 -0.327403  0.00
0.00 0.00  0.00

2.45899 2.45197  0.00
2.45197 -0.351701  0.00
0.00 0.00  0.00

1.0879 0.619109  0.00
0.619109 -0.235834  0.00
0.00 0.00  0.00

5.06185 2.04282  0.00
2.04282 0.54929  0.00
0.00 0.00  0.00

-0.182599 0.772071  0.00
0.772071 2.44672  0.00
0.00 0.00  0.00

-0.453509 1.18333  0.00
1.18333 1.90461  0.00
0.00 0.00  0.00

0.0510936 1.02049  0.00
1.02049 3.96457  0.00
0.00 0.00  0.00

0.0382445 0.274469  0.00
0.274469 2.38945  0.00
0.00 0.00  0.00

0.780972 -0.309766  0.00
-0.309766 5.4591  0.00
0.00 0.00  0.00

-0.326648 0.524587  0.00
0.524587 1.07255  0.00
0.00 0.00  0.00

-0.379597 2.67886  0.00
2.67886 3.908  0.00
0.00 0.00  0.00

-0.921325 -0.0971315  0.00
-0.0971315 2.31342  0.00
0.00 0.00  0.00

-0.669749 0.0573209  0.00
0.0573209 2.20718  0.00
0.00 0.00  0.00

-1.215 0.0876883  0.00
0.0876883 3.34805  0.00
0.00 0.00  0.00

-0.926409 -0.187412  0.00
-0.187412 1.92881  0.00
0.00 0.00  0.00


CELL_DATA 4
POINT_DATA 25
TENSORS S Float64
0.944094 1.62382  0.00
1.62382 2.05582  0.00
0.00 0.00  0.00

0.926408 1.56076  0.00
1.56076 1.60651  0.00
0.00 0.00  0.00

1.5205 2.56355  0.00
2.56355 3.21651  0.00
0.00 0.00  0.00

0.792337 1.35158  0.00
1.35158 1.98982  0.00
0.00 0.00  0.00

1.73324 2.6574  0.00
2.6574 4.14919  0.00
0.00 0.00  0.00

0.442967 0.770912  0.00
0.770912 0.96561  0.00
0.00 0.00  0.00

2.0729 3.51981  0.00
3.51981 3.19681  0.00
0.00 0.00  0.00

2.21805 1.23362  0.00
1.23362 -0.21915  0.00
0.00 0.00  0.00

2.3324 1.01741  0.00
1.01741 -0.061771  0.00
0.00 0.00  0.00

3.38703 1.91495  0.00
1.91495 -0.0992014  0.00
0.00 0.00  0.00

1.53166 1.18344  0.00
1.18344 -0.327403  0.00
0.00 0.00  0.00

2.45899 2.45197  0.00
2.45197 -0.351701  0.00
0.00 0.00  0.00

1.0879 0.619109  0.00
0.619109 -0.235834  0.00
0.00 0.00  0.00

5.06185 2.04282  0.00
2.04282 0.54929  0.00
0.00 0.00  0.00

-0.182599 0.772071  0.00
0.772071 2.44672  0.00
0.00 0.00  0.00

-0.453509 1.18333  0.00
1.18333 1.90461  0.00
0.00 0.00  0.00

0.0510936 1.02049  0.00
1.02049 3.96457  0.00
0.00 0.00  0.00

0.0382445 0.274469  0.00
0.274469 2.38945  0.00
0.00 0.00  0.00

0.780972 -0.309766  0.00
-0.309766 5.4591  0.00
0.00 0.00  0.00

-0.326648 0.524587  0.00
0.524587 1.07255  0.00
0.00 0.00  0.00

-0.379597 2.67886  0.00
2.67886 3.908  0.00
0.00 0.00  0.00

-0.921325 -0.0971315  0.00
-0.0971315 2.31342  0.00
0.00 0.00  0.00

-0.669749 0.0573209  0.00
0.0573209 2.20718  0.00
0.00 0.00  0.00

-1.215 0.0876883  0.00
0.0876883 3.34805  0.00
0.00 0.00  0.00

-0.926409 -0.187412  0.00
-0.187412 1.92881  0.00
0.00 0.00  0.00


CELL_DATA 4
POINT_DATA 25
SCALARS ue float
LOOKUP_TABLE default
2.27188
2.07929
3.83012
1.93355
4.24336
0.927467
5.16229
2.15731
2.39982
3.68788
1.38493
2.74496
0.847123
6.2993
3.25134
1.9988
5.87549
3.52556
9.25233
0.995071
5.05358
1.90791
1.97548
3.09918
1.48217

