# vtk DataFile Version 2.0
FEM, Created by Wutzow
ASCII
DATASET UNSTRUCTURED_GRID
POINTS 25 Float64
0 0 0
2.29665 3.78401 0
-11.9552 -6.78167 0
10.6172 2.6238 0
4.47673 0.924765 0
-0.310884 -6.28609 0
-46.8964 -10.9031 0
0 0.333333 0
-1.92521 -0.731599 0
43.2463 9.38336 0
-37.5938 -8.83855 0
-0.733624 -5.74633 0
-5.08345 -0.466602 0
59.4072 13.8713 0
0 0.666667 0
6.81699 2.41682 0
-6.64816 -2.21556 0
31.9314 7.00554 0
-1.94209 -3.01268 0
-29.1799 -3.48719 0
15.4057 3.19486 0
0 1 0
-8.44143 -0.68229 0
13.1135 0.785743 0
-4.28787 -0.646871 0

CELLS 4 44
10 0 3 12 1 2 6 9 8 4 5
10 3 24 12 10 17 20 16 9 6 13
10 24 21 12 23 22 18 15 16 20 19
10 21 0 12 14 7 4 8 15 18 11

CELL_TYPES 4
69
69
69
69

CELL_DATA 4
POINT_DATA 25
VECTORS Y Float64
0 0 0.0
2.29665 3.78401 0.0
-11.9552 -6.78167 0.0
10.6172 2.6238 0.0
4.47673 0.924765 0.0
-0.310884 -6.28609 0.0
-46.8964 -10.9031 0.0
0 0.333333 0.0
-1.92521 -0.731599 0.0
43.2463 9.38336 0.0
-37.5938 -8.83855 0.0
-0.733624 -5.74633 0.0
-5.08345 -0.466602 0.0
59.4072 13.8713 0.0
0 0.666667 0.0
6.81699 2.41682 0.0
-6.64816 -2.21556 0.0
31.9314 7.00554 0.0
-1.94209 -3.01268 0.0
-29.1799 -3.48719 0.0
15.4057 3.19486 0.0
0 1 0.0
-8.44143 -0.68229 0.0
13.1135 0.785743 0.0
-4.28787 -0.646871 0.0

CELL_DATA 4
POINT_DATA 25
VECTORS U Float64
0 0 0.0
1.96331 3.78401 0.0
-12.6219 -6.78167 0.0
9.61723 2.6238 0.0
4.31007 0.758098 0.0
-0.810884 -6.45275 0.0
-47.7298 -11.0697 0.0
0 0 0.0
-2.25855 -1.06493 0.0
42.5797 9.05003 0.0
-38.5938 -9.17189 0.0
-0.90029 -6.24633 0.0
-5.58345 -0.966602 0.0
58.5739 13.3713 0.0
0 0 0.0
6.48366 1.75016 0.0
-7.31483 -2.88223 0.0
30.9314 6.33887 0.0
-2.10876 -3.84601 0.0
-29.6799 -4.32052 0.0
14.5724 2.36153 0.0
0 0 0.0
-8.77476 -1.68229 0.0
12.4468 -0.214257 0.0
-5.28787 -1.64687 0.0

CELL_DATA 4
POINT_DATA 25
TENSORS E Float64
-0.128026 0.18689  0.00
0.18689 -0.39803  0.00
0.00 0.00  0.00

-0.0745525 0.299219  0.00
0.299219 -0.339062  0.00
0.00 0.00  0.00

0.0338118 0.555826  0.00
0.555826 -0.50709  0.00
0.00 0.00  0.00

-0.123584 0.0394131  0.00
0.0394131 -0.340623  0.00
0.00 0.00  0.00

0.239022 0.359634  0.00
0.359634 -0.580969  0.00
0.00 0.00  0.00

-0.190868 -0.0731835  0.00
-0.0731835 -0.258826  0.00
0.00 0.00  0.00

0.375977 1.46537  0.00
1.46537 -0.284041  0.00
0.00 0.00  0.00

1.52051 0.5475  0.00
0.5475 -0.810622  0.00
0.00 0.00  0.00

1.8405 0.506787  0.00
0.506787 -0.540592  0.00
0.00 0.00  0.00

2.42239 0.955214  0.00
0.955214 -0.986147  0.00
0.00 0.00  0.00

0.787255 0.486923  0.00
0.486923 -0.886459  0.00
0.00 0.00  0.00

1.00336 1.10467  0.00
1.10467 -1.50939  0.00
0.00 0.00  0.00

0.679165 0.222294  0.00
0.222294 -0.54083  0.00
0.00 0.00  0.00

4.49086 1.39053  0.00
1.39053 -0.253377  0.00
0.00 0.00  0.00

-0.341482 0.10111  0.00
0.10111 1.6954  0.00
0.00 0.00  0.00

-0.520072 0.57144  0.00
0.57144 1.1965  0.00
0.00 0.00  0.00

-0.0860499 0.0591627  0.00
0.0591627 2.90378  0.00
0.00 0.00  0.00

-0.190001 -0.277387  0.00
-0.277387 1.78391  0.00
0.00 0.00  0.00

0.440263 -1.23179  0.00
-1.23179 4.50056  0.00
0.00 0.00  0.00

-0.477966 0.157424  0.00
0.157424 0.649555  0.00
0.00 0.00  0.00

-0.200249 1.61268  0.00
1.61268 2.66486  0.00
0.00 0.00  0.00

-0.89007 -0.188692  0.00
-0.188692 2.01352  0.00
0.00 0.00  0.00

-0.656587 0.000228423  0.00
0.000228423 1.99255  0.00
0.00 0.00  0.00

-1.1711 -0.0723253  0.00
-0.0723253 2.82545  0.00
0.00 0.00  0.00

-0.894981 -0.306263  0.00
-0.306263 1.61081  0.00
0.00 0.00  0.00


CELL_DATA 4
POINT_DATA 25
TENSORS S Float64
-0.128026 0.18689  0.00
0.18689 -0.39803  0.00
0.00 0.00  0.00

-0.0745525 0.299219  0.00
0.299219 -0.339062  0.00
0.00 0.00  0.00

0.0338118 0.555826  0.00
0.555826 -0.50709  0.00
0.00 0.00  0.00

-0.123584 0.0394131  0.00
0.0394131 -0.340623  0.00
0.00 0.00  0.00

0.239022 0.359634  0.00
0.359634 -0.580969  0.00
0.00 0.00  0.00

-0.190868 -0.0731835  0.00
-0.0731835 -0.258826  0.00
0.00 0.00  0.00

0.375977 1.46537  0.00
1.46537 -0.284041  0.00
0.00 0.00  0.00

1.52051 0.5475  0.00
0.5475 -0.810622  0.00
0.00 0.00  0.00

1.8405 0.506787  0.00
0.506787 -0.540592  0.00
0.00 0.00  0.00

2.42239 0.955214  0.00
0.955214 -0.986147  0.00
0.00 0.00  0.00

0.787255 0.486923  0.00
0.486923 -0.886459  0.00
0.00 0.00  0.00

1.00336 1.10467  0.00
1.10467 -1.50939  0.00
0.00 0.00  0.00

0.679165 0.222294  0.00
0.222294 -0.54083  0.00
0.00 0.00  0.00

4.49086 1.39053  0.00
1.39053 -0.253377  0.00
0.00 0.00  0.00

-0.341482 0.10111  0.00
0.10111 1.6954  0.00
0.00 0.00  0.00

-0.520072 0.57144  0.00
0.57144 1.1965  0.00
0.00 0.00  0.00

-0.0860499 0.0591627  0.00
0.0591627 2.90378  0.00
0.00 0.00  0.00

-0.190001 -0.277387  0.00
-0.277387 1.78391  0.00
0.00 0.00  0.00

0.440263 -1.23179  0.00
-1.23179 4.50056  0.00
0.00 0.00  0.00

-0.477966 0.157424  0.00
0.157424 0.649555  0.00
0.00 0.00  0.00

-0.200249 1.61268  0.00
1.61268 2.66486  0.00
0.00 0.00  0.00

-0.89007 -0.188692  0.00
-0.188692 2.01352  0.00
0.00 0.00  0.00

-0.656587 0.000228423  0.00
0.000228423 1.99255  0.00
0.00 0.00  0.00

-1.1711 -0.0723253  0.00
-0.0723253 2.82545  0.00
0.00 0.00  0.00

-0.894981 -0.306263  0.00
-0.306263 1.61081  0.00
0.00 0.00  0.00


CELL_DATA 4
POINT_DATA 25
SCALARS ue float
LOOKUP_TABLE default
0.845286
1.11934
1.80943
0.428928
1.24298
0.135542
4.07262
1.50417
1.98211
2.86166
0.662577
1.40063
0.420773
6.14256
2.72329
1.59344
5.29686
3.01958
8.5897
0.599113
4.91525
1.79581
2.08068
2.99237
1.20049

