# vtk DataFile Version 2.0
FEM, Created by Wutzow
ASCII
DATASET UNSTRUCTURED_GRID
POINTS 25 Float64
0 0 0
0.223902 2.80049 0
0.681872 -3.49928 0
-0.93567 0.146127 0
0.161732 -1.60642 0
-1.51803 -1.96073 0
1.32225 6.29639 0
0 0.333333 0
-0.151886 1.05495 0
-0.120834 -7.76328 0
4.25646 -2.41929 0
-0.43182 -4.53133 0
0.0553233 1.1578 0
-3.51623 -5.49502 0
0 0.666667 0
-0.324116 0.598646 0
0.380667 -3.49398 0
-3.34967 3.09197 0
0.281992 -2.52744 0
0.435736 -2.46256 0
-0.364844 3.03118 0
0 1 0
-0.0649481 -2.63839 0
0.022536 2.4893 0
0.128467 -0.597003 0

CELLS 4 44
10 0 3 12 1 2 6 9 8 4 5
10 3 24 12 10 17 20 16 9 6 13
10 24 21 12 23 22 18 15 16 20 19
10 21 0 12 14 7 4 8 15 18 11

CELL_TYPES 4
69
69
69
69

CELL_DATA 4
POINT_DATA 25
VECTORS Y Float64
0 0 0.0
0.223902 2.80049 0.0
0.681872 -3.49928 0.0
-0.93567 0.146127 0.0
0.161732 -1.60642 0.0
-1.51803 -1.96073 0.0
1.32225 6.29639 0.0
0 0.333333 0.0
-0.151886 1.05495 0.0
-0.120834 -7.76328 0.0
4.25646 -2.41929 0.0
-0.43182 -4.53133 0.0
0.0553233 1.1578 0.0
-3.51623 -5.49502 0.0
0 0.666667 0.0
-0.324116 0.598646 0.0
0.380667 -3.49398 0.0
-3.34967 3.09197 0.0
0.281992 -2.52744 0.0
0.435736 -2.46256 0.0
-0.364844 3.03118 0.0
0 1 0.0
-0.0649481 -2.63839 0.0
0.022536 2.4893 0.0
0.128467 -0.597003 0.0

CELL_DATA 4
POINT_DATA 25
VECTORS U Float64
0 0 0.0
-0.109431 2.80049 0.0
0.0152054 -3.49928 0.0
-1.93567 0.146127 0.0
-0.0049344 -1.77309 0.0
-2.01803 -2.12739 0.0
0.488917 6.12973 0.0
0 0 0.0
-0.48522 0.721612 0.0
-0.787501 -8.09661 0.0
3.25646 -2.75263 0.0
-0.598486 -5.03133 0.0
-0.444677 0.657802 0.0
-4.34957 -5.99502 0.0
0 0 0.0
-0.657449 -0.0680208 0.0
-0.285999 -4.16065 0.0
-4.34967 2.4253 0.0
0.115325 -3.36077 0.0
-0.0642642 -3.29589 0.0
-1.19818 2.19785 0.0
0 0 0.0
-0.398281 -3.63839 0.0
-0.644131 1.4893 0.0
-0.871533 -1.597 0.0

CELL_DATA 4
POINT_DATA 25
TENSORS E Float64
1.48482 1.805  0.00
1.805 0.518504  0.00
0.00 0.00  0.00

1.5501 1.60066  0.00
1.60066 0.415306  0.00
0.00 0.00  0.00

3.44422 3.69667  0.00
3.69667 1.45493  0.00
0.00 0.00  0.00

0.0143356 0.769434  0.00
0.769434 -0.10433  0.00
0.00 0.00  0.00

0.423436 1.94286  0.00
1.94286 0.00624644  0.00
0.00 0.00  0.00

0.07059 0.394532  0.00
0.394532 -0.0795492  0.00
0.00 0.00  0.00

5.0854 4.6832  0.00
4.6832 1.88562  0.00
0.00 0.00  0.00

17.7512 14.7475  0.00
14.7475 12.2913  0.00
0.00 0.00  0.00

16.1437 13.6467  0.00
13.6467 10.3019  0.00
0.00 0.00  0.00

38.0706 32.4196  0.00
32.4196 29.0197  0.00
0.00 0.00  0.00

11.1918 7.30202  0.00
7.30202 3.88541  0.00
0.00 0.00  0.00

35.0439 23.4191  0.00
23.4191 14.8805  0.00
0.00 0.00  0.00

2.36043 1.78707  0.00
1.78707 0.70976  0.00
0.00 0.00  0.00

54.9324 46.7809  0.00
46.7809 37.547  0.00
0.00 0.00  0.00

41.884 63.9583  0.00
63.9583 105.988  0.00
0.00 0.00  0.00

59.8787 88.7297  0.00
88.7297 141.167  0.00
0.00 0.00  0.00

87.2151 129.129  0.00
129.129 211.651  0.00
0.00 0.00  0.00

6.68937 14.3854  0.00
14.3854 28.9073  0.00
0.00 0.00  0.00

18.7237 38.5321  0.00
38.5321 80.1188  0.00
0.00 0.00  0.00

5.81628 10.257  0.00
10.257 17.1482  0.00
0.00 0.00  0.00

193.482 276.649  0.00
276.649 431.169  0.00
0.00 0.00  0.00

79.8102 52.3781  0.00
52.3781 44.3414  0.00
0.00 0.00  0.00

95.9795 58.4346  0.00
58.4346 44.7079  0.00
0.00 0.00  0.00

160.171 101.485  0.00
101.485 79.9663  0.00
0.00 0.00  0.00

22.8538 22.7033  0.00
22.7033 27.4531  0.00
0.00 0.00  0.00


CELL_DATA 4
POINT_DATA 25
TENSORS S Float64
1.48482 1.805  0.00
1.805 0.518504  0.00
0.00 0.00  0.00

1.5501 1.60066  0.00
1.60066 0.415306  0.00
0.00 0.00  0.00

3.44422 3.69667  0.00
3.69667 1.45493  0.00
0.00 0.00  0.00

0.0143356 0.769434  0.00
0.769434 -0.10433  0.00
0.00 0.00  0.00

0.423436 1.94286  0.00
1.94286 0.00624644  0.00
0.00 0.00  0.00

0.07059 0.394532  0.00
0.394532 -0.0795492  0.00
0.00 0.00  0.00

5.0854 4.6832  0.00
4.6832 1.88562  0.00
0.00 0.00  0.00

17.7512 14.7475  0.00
14.7475 12.2913  0.00
0.00 0.00  0.00

16.1437 13.6467  0.00
13.6467 10.3019  0.00
0.00 0.00  0.00

38.0706 32.4196  0.00
32.4196 29.0197  0.00
0.00 0.00  0.00

11.1918 7.30202  0.00
7.30202 3.88541  0.00
0.00 0.00  0.00

35.0439 23.4191  0.00
23.4191 14.8805  0.00
0.00 0.00  0.00

2.36043 1.78707  0.00
1.78707 0.70976  0.00
0.00 0.00  0.00

54.9324 46.7809  0.00
46.7809 37.547  0.00
0.00 0.00  0.00

41.884 63.9583  0.00
63.9583 105.988  0.00
0.00 0.00  0.00

59.8787 88.7297  0.00
88.7297 141.167  0.00
0.00 0.00  0.00

87.2151 129.129  0.00
129.129 211.651  0.00
0.00 0.00  0.00

6.68937 14.3854  0.00
14.3854 28.9073  0.00
0.00 0.00  0.00

18.7237 38.5321  0.00
38.5321 80.1188  0.00
0.00 0.00  0.00

5.81628 10.257  0.00
10.257 17.1482  0.00
0.00 0.00  0.00

193.482 276.649  0.00
276.649 431.169  0.00
0.00 0.00  0.00

79.8102 52.3781  0.00
52.3781 44.3414  0.00
0.00 0.00  0.00

95.9795 58.4346  0.00
58.4346 44.7079  0.00
0.00 0.00  0.00

160.171 101.485  0.00
101.485 79.9663  0.00
0.00 0.00  0.00

22.8538 22.7033  0.00
22.7033 27.4531  0.00
0.00 0.00  0.00


CELL_DATA 4
POINT_DATA 25
SCALARS ue float
LOOKUP_TABLE default
55.1666
17.9862
138.002
10.114
39.242
3.09976
70.3482
1710.31
1319.33
4047.86
392.817
1440.82
136.576
4702.84
19454.9
28340.1
39480.4
2524.46
6771.14
2818.69
88104
12324.4
16191.1
24758.8
2127.39

