# vtk DataFile Version 2.0
FEM, Created by Wutzow
ASCII
DATASET UNSTRUCTURED_GRID
POINTS 25 Float64
0 0 0
9.71919 20.9454 0
-39.6198 -60.2336 0
31.8191 39.8818 0
-8.29274 0.666095 0
41.7615 17.995 0
-118.185 -146.437 0
0 0.333333 0
2.67026 -3.78477 0
86.7551 111.882 0
-112.21 -141.797 0
2.88234 -4.05501 0
5.44086 -0.824525 0
179.171 221.277 0
0 0.666667 0
-7.64756 3.23961 0
-7.49213 -6.87184 0
84.1944 107.743 0
2.30836 -3.38943 0
-0.996298 -13.9179 0
3.18535 9.65508 0
0 1 0
-5.24719 -5.12611 0
5.40952 6.73742 0
-0.834055 -2.3071 0

CELLS 4 44
10 0 3 12 1 2 6 9 8 4 5
10 3 24 12 10 17 20 16 9 6 13
10 24 21 12 23 22 18 15 16 20 19
10 21 0 12 14 7 4 8 15 18 11

CELL_TYPES 4
69
69
69
69

CELL_DATA 4
POINT_DATA 25
VECTORS Y Float64
0 0 0.0
9.71919 20.9454 0.0
-39.6198 -60.2336 0.0
31.8191 39.8818 0.0
-8.29274 0.666095 0.0
41.7615 17.995 0.0
-118.185 -146.437 0.0
0 0.333333 0.0
2.67026 -3.78477 0.0
86.7551 111.882 0.0
-112.21 -141.797 0.0
2.88234 -4.05501 0.0
5.44086 -0.824525 0.0
179.171 221.277 0.0
0 0.666667 0.0
-7.64756 3.23961 0.0
-7.49213 -6.87184 0.0
84.1944 107.743 0.0
2.30836 -3.38943 0.0
-0.996298 -13.9179 0.0
3.18535 9.65508 0.0
0 1 0.0
-5.24719 -5.12611 0.0
5.40952 6.73742 0.0
-0.834055 -2.3071 0.0

CELL_DATA 4
POINT_DATA 25
VECTORS U Float64
0 0 0.0
9.38585 20.9454 0.0
-40.2865 -60.2336 0.0
30.8191 39.8818 0.0
-8.45941 0.499429 0.0
41.2615 17.8284 0.0
-119.018 -146.604 0.0
0 0 0.0
2.33692 -4.1181 0.0
86.0884 111.549 0.0
-113.21 -142.13 0.0
2.71567 -4.55501 0.0
4.94086 -1.32453 0.0
178.338 220.777 0.0
0 0 0.0
-7.98089 2.57295 0.0
-8.15879 -7.53851 0.0
83.1944 107.077 0.0
2.14169 -4.22276 0.0
-1.4963 -14.7512 0.0
2.35201 8.82174 0.0
0 0 0.0
-5.58052 -6.12611 0.0
4.74285 5.73742 0.0
-1.83405 -3.3071 0.0

CELL_DATA 4
POINT_DATA 25
TENSORS E Float64
26.4 24.1903  0.00
24.1903 41.3248  0.00
0.00 0.00  0.00

34.7327 38.4527  0.00
38.4527 58.2579  0.00
0.00 0.00  0.00

55.4277 51.2549  0.00
51.2549 82.5632  0.00
0.00 0.00  0.00

10.8528 5.49335  0.00
5.49335 15.1354  0.00
0.00 0.00  0.00

28.8488 13.1064  0.00
13.1064 34.878  0.00
0.00 0.00  0.00

4.73089 4.02156  0.00
4.02156 9.03319  0.00
0.00 0.00  0.00

120.68 134.988  0.00
134.988 191.196  0.00
0.00 0.00  0.00

70.8698 34.6745  0.00
34.6745 36.2474  0.00
0.00 0.00  0.00

92.6394 37.3206  0.00
37.3206 29.0931  0.00
0.00 0.00  0.00

139.807 74.0848  0.00
74.0848 82.3553  0.00
0.00 0.00  0.00

17.3053 8.5136  0.00
8.5136 7.97455  0.00
0.00 0.00  0.00

38.0165 22.2211  0.00
22.2211 24.821  0.00
0.00 0.00  0.00

14.3571 5.56168  0.00
5.56168 4.18483  0.00
0.00 0.00  0.00

279.646 121.743  0.00
121.743 99.5842  0.00
0.00 0.00  0.00

9.57158 8.5191  0.00
8.5191 9.62219  0.00
0.00 0.00  0.00

17.4681 16.1693  0.00
16.1693 15.7655  0.00
0.00 0.00  0.00

21.9817 19.0833  0.00
19.0833 20.8208  0.00
0.00 0.00  0.00

1.12622 0.513679  0.00
0.513679 2.42658  0.00
0.00 0.00  0.00

3.3094 0.684491  0.00
0.684491 6.27777  0.00
0.00 0.00  0.00

0.841264 1.09231  0.00
1.09231 1.44319  0.00
0.00 0.00  0.00

67.4111 60.7433  0.00
60.7433 57.546  0.00
0.00 0.00  0.00

9.7467 8.90906  0.00
8.90906 10.6215  0.00
0.00 0.00  0.00

17.3539 15.2254  0.00
15.2254 14.8172  0.00
0.00 0.00  0.00

23.0809 21.0338  0.00
21.0338 23.2532  0.00
0.00 0.00  0.00

0.611666 0.7333  0.00
0.7333 3.20486  0.00
0.00 0.00  0.00


CELL_DATA 4
POINT_DATA 25
TENSORS S Float64
26.4 24.1903  0.00
24.1903 41.3248  0.00
0.00 0.00  0.00

34.7327 38.4527  0.00
38.4527 58.2579  0.00
0.00 0.00  0.00

55.4277 51.2549  0.00
51.2549 82.5632  0.00
0.00 0.00  0.00

10.8528 5.49335  0.00
5.49335 15.1354  0.00
0.00 0.00  0.00

28.8488 13.1064  0.00
13.1064 34.878  0.00
0.00 0.00  0.00

4.73089 4.02156  0.00
4.02156 9.03319  0.00
0.00 0.00  0.00

120.68 134.988  0.00
134.988 191.196  0.00
0.00 0.00  0.00

70.8698 34.6745  0.00
34.6745 36.2474  0.00
0.00 0.00  0.00

92.6394 37.3206  0.00
37.3206 29.0931  0.00
0.00 0.00  0.00

139.807 74.0848  0.00
74.0848 82.3553  0.00
0.00 0.00  0.00

17.3053 8.5136  0.00
8.5136 7.97455  0.00
0.00 0.00  0.00

38.0165 22.2211  0.00
22.2211 24.821  0.00
0.00 0.00  0.00

14.3571 5.56168  0.00
5.56168 4.18483  0.00
0.00 0.00  0.00

279.646 121.743  0.00
121.743 99.5842  0.00
0.00 0.00  0.00

9.57158 8.5191  0.00
8.5191 9.62219  0.00
0.00 0.00  0.00

17.4681 16.1693  0.00
16.1693 15.7655  0.00
0.00 0.00  0.00

21.9817 19.0833  0.00
19.0833 20.8208  0.00
0.00 0.00  0.00

1.12622 0.513679  0.00
0.513679 2.42658  0.00
0.00 0.00  0.00

3.3094 0.684491  0.00
0.684491 6.27777  0.00
0.00 0.00  0.00

0.841264 1.09231  0.00
1.09231 1.44319  0.00
0.00 0.00  0.00

67.4111 60.7433  0.00
60.7433 57.546  0.00
0.00 0.00  0.00

9.7467 8.90906  0.00
8.90906 10.6215  0.00
0.00 0.00  0.00

17.3539 15.2254  0.00
15.2254 14.8172  0.00
0.00 0.00  0.00

23.0809 21.0338  0.00
21.0338 23.2532  0.00
0.00 0.00  0.00

0.611666 0.7333  0.00
0.7333 3.20486  0.00
0.00 0.00  0.00


CELL_DATA 4
POINT_DATA 25
SCALARS ue float
LOOKUP_TABLE default
3884.53
6517.34
8592.03
393.35
1116.3
427.983
23533.8
17421.6
10679.5
40688.6
3337.62
12221.7
1421.19
36277.4
1122.48
2173.89
2607.37
65.852
186.913
97.8935
8462.27
1321.3
2221.44
3112.16
103.012

