# vtk DataFile Version 2.0
FEM, Created by Wutzow
ASCII
DATASET UNSTRUCTURED_GRID
POINTS 25 Float64
0 0 0
2.29665 3.78401 0
-11.9552 -6.78168 0
10.6172 2.62381 0
4.47674 0.924779 0
-0.31089 -6.28609 0
-46.8965 -10.9031 0
0 0.333333 0
-1.92523 -0.731608 0
43.2463 9.3834 0
-37.5938 -8.83859 0
-0.733625 -5.74633 0
-5.08344 -0.466613 0
59.4072 13.8714 0
0 0.666667 0
6.81699 2.41684 0
-6.64813 -2.21552 0
31.9314 7.00555 0
-1.94209 -3.01268 0
-29.1798 -3.48711 0
15.4057 3.19481 0
0 1 0
-8.4414 -0.68225 0
13.1135 0.78569 0
-4.28786 -0.646857 0

CELLS 4 44
10 0 3 12 1 2 6 9 8 4 5
10 3 24 12 10 17 20 16 9 6 13
10 24 21 12 23 22 18 15 16 20 19
10 21 0 12 14 7 4 8 15 18 11

CELL_TYPES 4
69
69
69
69

CELL_DATA 4
POINT_DATA 25
VECTORS Y Float64
0 0 0.0
2.29665 3.78401 0.0
-11.9552 -6.78168 0.0
10.6172 2.62381 0.0
4.47674 0.924779 0.0
-0.31089 -6.28609 0.0
-46.8965 -10.9031 0.0
0 0.333333 0.0
-1.92523 -0.731608 0.0
43.2463 9.3834 0.0
-37.5938 -8.83859 0.0
-0.733625 -5.74633 0.0
-5.08344 -0.466613 0.0
59.4072 13.8714 0.0
0 0.666667 0.0
6.81699 2.41684 0.0
-6.64813 -2.21552 0.0
31.9314 7.00555 0.0
-1.94209 -3.01268 0.0
-29.1798 -3.48711 0.0
15.4057 3.19481 0.0
0 1 0.0
-8.4414 -0.68225 0.0
13.1135 0.78569 0.0
-4.28786 -0.646857 0.0

CELL_DATA 4
POINT_DATA 25
VECTORS U Float64
0 0 0.0
1.96331 3.78401 0.0
-12.6219 -6.78168 0.0
9.61723 2.62381 0.0
4.31008 0.758112 0.0
-0.81089 -6.45276 0.0
-47.7298 -11.0698 0.0
0 0 0.0
-2.25856 -1.06494 0.0
42.5797 9.05007 0.0
-38.5938 -9.17192 0.0
-0.900292 -6.24633 0.0
-5.58344 -0.966613 0.0
58.5739 13.3714 0.0
0 0 0.0
6.48365 1.75017 0.0
-7.3148 -2.88219 0.0
30.9314 6.33888 0.0
-2.10876 -3.84601 0.0
-29.6798 -4.32044 0.0
14.5723 2.36148 0.0
0 0 0.0
-8.77474 -1.68225 0.0
12.4468 -0.21431 0.0
-5.28786 -1.64686 0.0

CELL_DATA 4
POINT_DATA 25
TENSORS E Float64
-0.128043 0.187472  0.00
0.187472 -0.397008  0.00
0.00 0.00  0.00

-0.0744541 0.299878  0.00
0.299878 -0.338127  0.00
0.00 0.00  0.00

0.0338401 0.556787  0.00
0.556787 -0.505466  0.00
0.00 0.00  0.00

-0.123714 0.0397725  0.00
0.0397725 -0.339774  0.00
0.00 0.00  0.00

0.238653 0.360224  0.00
0.360224 -0.579378  0.00
0.00 0.00  0.00

-0.190911 -0.0729419  0.00
-0.0729419 -0.258362  0.00
0.00 0.00  0.00

0.376508 1.46707  0.00
1.46707 -0.281898  0.00
0.00 0.00  0.00

1.51921 0.547461  0.00
0.547461 -0.810545  0.00
0.00 0.00  0.00

1.83957 0.506848  0.00
0.506848 -0.540499  0.00
0.00 0.00  0.00

2.42045 0.955069  0.00
0.955069 -0.986075  0.00
0.00 0.00  0.00

0.785902 0.486819  0.00
0.486819 -0.886397  0.00
0.00 0.00  0.00

1.00054 1.10416  0.00
1.10416 -1.50939  0.00
0.00 0.00  0.00

0.67848 0.222338  0.00
0.222338 -0.540755  0.00
0.00 0.00  0.00

4.48948 1.39064  0.00
1.39064 -0.253226  0.00
0.00 0.00  0.00

-0.34181 0.100666  0.00
0.100666 1.69474  0.00
0.00 0.00  0.00

-0.52039 0.571146  0.00
0.571146 1.19598  0.00
0.00 0.00  0.00

-0.0865991 0.0585296  0.00
0.0585296 2.90276  0.00
0.00 0.00  0.00

-0.190173 -0.277835  0.00
-0.277835 1.78333  0.00
0.00 0.00  0.00

0.439954 -1.23262  0.00
-1.23262 4.49944  0.00
0.00 0.00  0.00

-0.478088 0.157172  0.00
0.157172 0.649231  0.00
0.00 0.00  0.00

-0.200923 1.61232  0.00
1.61232 2.66393  0.00
0.00 0.00  0.00

-0.890355 -0.18879  0.00
-0.18879 2.01348  0.00
0.00 0.00  0.00

-0.656907 7.69062e-05  0.00
7.69062e-05 1.99236  0.00
0.00 0.00  0.00

-1.17169 -0.0724722  0.00
-0.0724722 2.82549  0.00
0.00 0.00  0.00

-0.895097 -0.306275  0.00
-0.306275 1.6109  0.00
0.00 0.00  0.00


CELL_DATA 4
POINT_DATA 25
TENSORS S Float64
-0.128043 0.187472  0.00
0.187472 -0.397008  0.00
0.00 0.00  0.00

-0.0744541 0.299878  0.00
0.299878 -0.338127  0.00
0.00 0.00  0.00

0.0338401 0.556787  0.00
0.556787 -0.505466  0.00
0.00 0.00  0.00

-0.123714 0.0397725  0.00
0.0397725 -0.339774  0.00
0.00 0.00  0.00

0.238653 0.360224  0.00
0.360224 -0.579378  0.00
0.00 0.00  0.00

-0.190911 -0.0729419  0.00
-0.0729419 -0.258362  0.00
0.00 0.00  0.00

0.376508 1.46707  0.00
1.46707 -0.281898  0.00
0.00 0.00  0.00

1.51921 0.547461  0.00
0.547461 -0.810545  0.00
0.00 0.00  0.00

1.83957 0.506848  0.00
0.506848 -0.540499  0.00
0.00 0.00  0.00

2.42045 0.955069  0.00
0.955069 -0.986075  0.00
0.00 0.00  0.00

0.785902 0.486819  0.00
0.486819 -0.886397  0.00
0.00 0.00  0.00

1.00054 1.10416  0.00
1.10416 -1.50939  0.00
0.00 0.00  0.00

0.67848 0.222338  0.00
0.222338 -0.540755  0.00
0.00 0.00  0.00

4.48948 1.39064  0.00
1.39064 -0.253226  0.00
0.00 0.00  0.00

-0.34181 0.100666  0.00
0.100666 1.69474  0.00
0.00 0.00  0.00

-0.52039 0.571146  0.00
0.571146 1.19598  0.00
0.00 0.00  0.00

-0.0865991 0.0585296  0.00
0.0585296 2.90276  0.00
0.00 0.00  0.00

-0.190173 -0.277835  0.00
-0.277835 1.78333  0.00
0.00 0.00  0.00

0.439954 -1.23262  0.00
-1.23262 4.49944  0.00
0.00 0.00  0.00

-0.478088 0.157172  0.00
0.157172 0.649231  0.00
0.00 0.00  0.00

-0.200923 1.61232  0.00
1.61232 2.66393  0.00
0.00 0.00  0.00

-0.890355 -0.18879  0.00
-0.18879 2.01348  0.00
0.00 0.00  0.00

-0.656907 7.69062e-05  0.00
7.69062e-05 1.99236  0.00
0.00 0.00  0.00

-1.17169 -0.0724722  0.00
-0.0724722 2.82549  0.00
0.00 0.00  0.00

-0.895097 -0.306275  0.00
-0.306275 1.6109  0.00
0.00 0.00  0.00


CELL_DATA 4
POINT_DATA 25
SCALARS ue float
LOOKUP_TABLE default
0.845581
1.11969
1.81022
0.429101
1.24374
0.13548
4.07429
1.5039
1.98218
2.86155
0.662032
1.39965
0.420463
6.1439
2.72327
1.5936
5.29708
3.01946
8.58971
0.598964
4.9165
1.79585
2.081
2.99264
1.20028

