# vtk DataFile Version 2.0
FEM, Created by Wutzow
ASCII
DATASET UNSTRUCTURED_GRID
POINTS 25 Float64
0 0 0
-0.487192 3.17465 0
3.22525 -4.73805 0
-2.89138 1.03863 0
1.04968 -2.05326 0
-4.62259 -0.116521 0
8.99338 1.72099 0
0 0.333333 0
-0.739669 1.26205 0
-6.06311 -3.92101 0
11.0824 -5.31258 0
-0.495455 -4.55598 0
-0.190708 1.26485 0
-14.6023 0.477112 0
0 0.666667 0
0.00367117 0.525076 0
1.72778 -4.31636 0
-8.80429 5.33424 0
0.176992 -2.60513 0
2.39458 -3.66957 0
-1.8574 3.9049 0
0 1 0
0.80572 -3.16357 0
-1.21912 3.16671 0
0.480496 -0.832109 0

CELLS 4 44
10 0 3 12 1 2 6 9 8 4 5
10 3 24 12 10 17 20 16 9 6 13
10 24 21 12 23 22 18 15 16 20 19
10 21 0 12 14 7 4 8 15 18 11

CELL_TYPES 4
69
69
69
69

CELL_DATA 4
POINT_DATA 25
VECTORS Y Float64
0 0 0.0
-0.487192 3.17465 0.0
3.22525 -4.73805 0.0
-2.89138 1.03863 0.0
1.04968 -2.05326 0.0
-4.62259 -0.116521 0.0
8.99338 1.72099 0.0
0 0.333333 0.0
-0.739669 1.26205 0.0
-6.06311 -3.92101 0.0
11.0824 -5.31258 0.0
-0.495455 -4.55598 0.0
-0.190708 1.26485 0.0
-14.6023 0.477112 0.0
0 0.666667 0.0
0.00367117 0.525076 0.0
1.72778 -4.31636 0.0
-8.80429 5.33424 0.0
0.176992 -2.60513 0.0
2.39458 -3.66957 0.0
-1.8574 3.9049 0.0
0 1 0.0
0.80572 -3.16357 0.0
-1.21912 3.16671 0.0
0.480496 -0.832109 0.0

CELL_DATA 4
POINT_DATA 25
VECTORS U Float64
0 0 0.0
-0.820525 3.17465 0.0
2.55859 -4.73805 0.0
-3.89138 1.03863 0.0
0.883011 -2.21992 0.0
-5.12259 -0.283188 0.0
8.16004 1.55432 0.0
0 0 0.0
-1.073 0.928713 0.0
-6.72978 -4.25434 0.0
10.0824 -5.64592 0.0
-0.662121 -5.05598 0.0
-0.690708 0.76485 0.0
-15.4356 -0.0228878 0.0
0 0 0.0
-0.329662 -0.141591 0.0
1.06112 -4.98303 0.0
-9.80429 4.66757 0.0
0.0103258 -3.43846 0.0
1.89458 -4.5029 0.0
-2.69073 3.07156 0.0
0 0 0.0
0.472386 -4.16357 0.0
-1.88578 2.16671 0.0
-0.519504 -1.83211 0.0

CELL_DATA 4
POINT_DATA 25
TENSORS E Float64
0.455213 0.804831  0.00
0.804831 -0.955339  0.00
0.00 0.00  0.00

0.456667 0.691149  0.00
0.691149 -0.83179  0.00
0.00 0.00  0.00

1.14015 1.63682  0.00
1.63682 -1.26956  0.00
0.00 0.00  0.00

-0.0919983 0.376458  0.00
0.376458 -1.08899  0.00
0.00 0.00  0.00

0.00644905 0.966103  0.00
0.966103 -2.24243  0.00
0.00 0.00  0.00

-0.0172524 0.183699  0.00
0.183699 -0.554521  0.00
0.00 0.00  0.00

1.52637 1.98556  0.00
1.98556 -1.3456  0.00
0.00 0.00  0.00

8.29581 6.69257  0.00
6.69257 4.83964  0.00
0.00 0.00  0.00

7.58213 6.13042  0.00
6.13042 4.0348  0.00
0.00 0.00  0.00

17.3291 14.5643  0.00
14.5643 11.9847  0.00
0.00 0.00  0.00

5.33311 3.44701  0.00
3.44701 1.22803  0.00
0.00 0.00  0.00

15.8375 10.8209  0.00
10.8209 5.81351  0.00
0.00 0.00  0.00

1.38396 0.893556  0.00
0.893556 -0.0293097  0.00
0.00 0.00  0.00

24.8776 20.7284  0.00
20.7284 15.7341  0.00
0.00 0.00  0.00

17.3252 28.0524  0.00
28.0524 48.2525  0.00
0.00 0.00  0.00

25.6905 39.513  0.00
39.513 63.1478  0.00
0.00 0.00  0.00

36.5708 56.5727  0.00
56.5727 96.0605  0.00
0.00 0.00  0.00

1.70242 5.76816  0.00
5.76816 14.4125  0.00
0.00 0.00  0.00

5.23917 15.1157  0.00
15.1157 39.9317  0.00
0.00 0.00  0.00

2.09714 4.56284  0.00
4.56284 8.01853  0.00
0.00 0.00  0.00

83.9903 123.047  0.00
123.047 192.119  0.00
0.00 0.00  0.00

34.3096 23.0844  0.00
23.0844 21.2905  0.00
0.00 0.00  0.00

41.5711 25.8056  0.00
25.8056 21.2456  0.00
0.00 0.00  0.00

69.4248 44.8408  0.00
44.8408 37.5972  0.00
0.00 0.00  0.00

9.20767 9.91181  0.00
9.91181 13.6293  0.00
0.00 0.00  0.00


CELL_DATA 4
POINT_DATA 25
TENSORS S Float64
0.455213 0.804831  0.00
0.804831 -0.955339  0.00
0.00 0.00  0.00

0.456667 0.691149  0.00
0.691149 -0.83179  0.00
0.00 0.00  0.00

1.14015 1.63682  0.00
1.63682 -1.26956  0.00
0.00 0.00  0.00

-0.0919983 0.376458  0.00
0.376458 -1.08899  0.00
0.00 0.00  0.00

0.00644905 0.966103  0.00
0.966103 -2.24243  0.00
0.00 0.00  0.00

-0.0172524 0.183699  0.00
0.183699 -0.554521  0.00
0.00 0.00  0.00

1.52637 1.98556  0.00
1.98556 -1.3456  0.00
0.00 0.00  0.00

8.29581 6.69257  0.00
6.69257 4.83964  0.00
0.00 0.00  0.00

7.58213 6.13042  0.00
6.13042 4.0348  0.00
0.00 0.00  0.00

17.3291 14.5643  0.00
14.5643 11.9847  0.00
0.00 0.00  0.00

5.33311 3.44701  0.00
3.44701 1.22803  0.00
0.00 0.00  0.00

15.8375 10.8209  0.00
10.8209 5.81351  0.00
0.00 0.00  0.00

1.38396 0.893556  0.00
0.893556 -0.0293097  0.00
0.00 0.00  0.00

24.8776 20.7284  0.00
20.7284 15.7341  0.00
0.00 0.00  0.00

17.3252 28.0524  0.00
28.0524 48.2525  0.00
0.00 0.00  0.00

25.6905 39.513  0.00
39.513 63.1478  0.00
0.00 0.00  0.00

36.5708 56.5727  0.00
56.5727 96.0605  0.00
0.00 0.00  0.00

1.70242 5.76816  0.00
5.76816 14.4125  0.00
0.00 0.00  0.00

5.23917 15.1157  0.00
15.1157 39.9317  0.00
0.00 0.00  0.00

2.09714 4.56284  0.00
4.56284 8.01853  0.00
0.00 0.00  0.00

83.9903 123.047  0.00
123.047 192.119  0.00
0.00 0.00  0.00

34.3096 23.0844  0.00
23.0844 21.2905  0.00
0.00 0.00  0.00

41.5711 25.8056  0.00
25.8056 21.2456  0.00
0.00 0.00  0.00

69.4248 44.8408  0.00
44.8408 37.5972  0.00
0.00 0.00  0.00

9.20767 9.91181  0.00
9.91181 13.6293  0.00
0.00 0.00  0.00


CELL_DATA 4
POINT_DATA 25
SCALARS ue float
LOOKUP_TABLE default
11.032
3.58061
27.3834
2.27927
8.3912
0.723586
13.6965
335.717
259.484
794.2
77.0605
282.034
27.0169
924.237
3839.63
5587.91
7791.39
503.826
1353.56
556.609
17370.2
2434.48
3196.13
4887
423.947

