# vtk DataFile Version 2.0
FEM, Created by Wutzow
ASCII
DATASET UNSTRUCTURED_GRID
POINTS 25 Float64
0 0 0
2.86277 1.21183 0
-15.0148 2.42935 0
13.2877 -4.46981 0
0.882249 -3.92118 0
9.14688 -0.246257 0
-51.6301 12.2672 0
0 0.333333 0
0.0682328 1.51637 0
40.6409 -9.18529 0
-46.6368 16.2128 0
0.0281601 -4.37934 0
-2.50207 3.91557 0
81.1284 -26.6858 0
0 0.666667 0
3.15223 -3.44668 0
5.62131 -11.0995 0
34.059 -9.3843 0
-0.821078 -1.37092 0
1.52756 -14.2512 0
-3.47249 10.1713 0
0 1 0
0.611494 -11.4757 0
-0.900325 12.9231 0
0.406539 -2.91284 0

CELLS 4 44
10 0 3 12 1 2 6 9 8 4 5
10 3 24 12 10 17 20 16 9 6 13
10 24 21 12 23 22 18 15 16 20 19
10 21 0 12 14 7 4 8 15 18 11

CELL_TYPES 4
69
69
69
69

CELL_DATA 4
POINT_DATA 25
VECTORS Y Float64
0 0 0.0
2.86277 1.21183 0.0
-15.0148 2.42935 0.0
13.2877 -4.46981 0.0
0.882249 -3.92118 0.0
9.14688 -0.246257 0.0
-51.6301 12.2672 0.0
0 0.333333 0.0
0.0682328 1.51637 0.0
40.6409 -9.18529 0.0
-46.6368 16.2128 0.0
0.0281601 -4.37934 0.0
-2.50207 3.91557 0.0
81.1284 -26.6858 0.0
0 0.666667 0.0
3.15223 -3.44668 0.0
5.62131 -11.0995 0.0
34.059 -9.3843 0.0
-0.821078 -1.37092 0.0
1.52756 -14.2512 0.0
-3.47249 10.1713 0.0
0 1 0.0
0.611494 -11.4757 0.0
-0.900325 12.9231 0.0
0.406539 -2.91284 0.0

CELL_DATA 4
POINT_DATA 25
VECTORS U Float64
0 0 0.0
2.52944 1.21183 0.0
-15.6815 2.42935 0.0
12.2877 -4.46981 0.0
0.715583 -4.08785 0.0
8.64688 -0.412924 0.0
-52.4635 12.1005 0.0
0 0 0.0
-0.265101 1.18304 0.0
39.9743 -9.51862 0.0
-47.6368 15.8795 0.0
-0.138507 -4.87934 0.0
-3.00207 3.41557 0.0
80.295 -27.1858 0.0
0 0 0.0
2.8189 -4.11334 0.0
4.95464 -11.7662 0.0
33.059 -10.051 0.0
-0.987745 -2.20426 0.0
1.02756 -15.0845 0.0
-4.30582 9.33792 0.0
0 0 0.0
0.278161 -12.4757 0.0
-1.56699 11.9231 0.0
-0.593461 -3.91284 0.0

CELL_DATA 4
POINT_DATA 25
TENSORS E Float64
3.02577 1.17781  0.00
1.17781 1.0394  0.00
0.00 0.00  0.00

2.85105 1.7441  0.00
1.7441 1.66185  0.00
0.00 0.00  0.00

5.12543 2.34613  0.00
2.34613 2.21686  0.00
0.00 0.00  0.00

2.55959 0.409891  0.00
0.409891 0.211772  0.00
0.00 0.00  0.00

5.98967 0.947565  0.00
0.947565 0.549892  0.00
0.00 0.00  0.00

1.23814 0.268389  0.00
0.268389 0.140573  0.00
0.00 0.00  0.00

6.87249 5.72584  0.00
5.72584 5.83048  0.00
0.00 0.00  0.00

4.36718 1.18031  0.00
1.18031 -0.0898185  0.00
0.00 0.00  0.00

4.36966 0.776153  0.00
0.776153 -0.172513  0.00
0.00 0.00  0.00

6.89718 2.05972  0.00
2.05972 0.420436  0.00
0.00 0.00  0.00

3.16599 1.2216  0.00
1.2216 -0.202203  0.00
0.00 0.00  0.00

5.64608 2.94612  0.00
2.94612 0.410714  0.00
0.00 0.00  0.00

2.00254 0.454884  0.00
0.454884 -0.370781  0.00
0.00 0.00  0.00

9.81495 1.86083  0.00
1.86083 0.70246  0.00
0.00 0.00  0.00

0.0562153 0.856872  0.00
0.856872 2.46576  0.00
0.00 0.00  0.00

-0.107374 1.29005  0.00
1.29005 1.84576  0.00
0.00 0.00  0.00

0.601561 1.28928  0.00
1.28928 4.11059  0.00
0.00 0.00  0.00

0.108816 0.323724  0.00
0.323724 2.50057  0.00
0.00 0.00  0.00

1.04566 -0.0203278  0.00
-0.0203278 5.96451  0.00
0.00 0.00  0.00

-0.31701 0.481551  0.00
0.481551 1.00875  0.00
0.00 0.00  0.00

0.938497 3.29585  0.00
3.29585 4.04076  0.00
0.00 0.00  0.00

0.029148 0.36816  0.00
0.36816 2.6147  0.00
0.00 0.00  0.00

0.369451 0.600259  0.00
0.600259 2.43733  0.00
0.00 0.00  0.00

0.67677 0.939185  0.00
0.939185 3.85504  0.00
0.00 0.00  0.00

-0.429473 0.0142631  0.00
0.0142631 2.08613  0.00
0.00 0.00  0.00


CELL_DATA 4
POINT_DATA 25
TENSORS S Float64
3.02577 1.17781  0.00
1.17781 1.0394  0.00
0.00 0.00  0.00

2.85105 1.7441  0.00
1.7441 1.66185  0.00
0.00 0.00  0.00

5.12543 2.34613  0.00
2.34613 2.21686  0.00
0.00 0.00  0.00

2.55959 0.409891  0.00
0.409891 0.211772  0.00
0.00 0.00  0.00

5.98967 0.947565  0.00
0.947565 0.549892  0.00
0.00 0.00  0.00

1.23814 0.268389  0.00
0.268389 0.140573  0.00
0.00 0.00  0.00

6.87249 5.72584  0.00
5.72584 5.83048  0.00
0.00 0.00  0.00

4.36718 1.18031  0.00
1.18031 -0.0898185  0.00
0.00 0.00  0.00

4.36966 0.776153  0.00
0.776153 -0.172513  0.00
0.00 0.00  0.00

6.89718 2.05972  0.00
2.05972 0.420436  0.00
0.00 0.00  0.00

3.16599 1.2216  0.00
1.2216 -0.202203  0.00
0.00 0.00  0.00

5.64608 2.94612  0.00
2.94612 0.410714  0.00
0.00 0.00  0.00

2.00254 0.454884  0.00
0.454884 -0.370781  0.00
0.00 0.00  0.00

9.81495 1.86083  0.00
1.86083 0.70246  0.00
0.00 0.00  0.00

0.0562153 0.856872  0.00
0.856872 2.46576  0.00
0.00 0.00  0.00

-0.107374 1.29005  0.00
1.29005 1.84576  0.00
0.00 0.00  0.00

0.601561 1.28928  0.00
1.28928 4.11059  0.00
0.00 0.00  0.00

0.108816 0.323724  0.00
0.323724 2.50057  0.00
0.00 0.00  0.00

1.04566 -0.0203278  0.00
-0.0203278 5.96451  0.00
0.00 0.00  0.00

-0.31701 0.481551  0.00
0.481551 1.00875  0.00
0.00 0.00  0.00

0.938497 3.29585  0.00
3.29585 4.04076  0.00
0.00 0.00  0.00

0.029148 0.36816  0.00
0.36816 2.6147  0.00
0.00 0.00  0.00

0.369451 0.600259  0.00
0.600259 2.43733  0.00
0.00 0.00  0.00

0.67677 0.939185  0.00
0.939185 3.85504  0.00
0.00 0.00  0.00

-0.429473 0.0142631  0.00
0.0142631 2.08613  0.00
0.00 0.00  0.00


CELL_DATA 4
POINT_DATA 25
SCALARS ue float
LOOKUP_TABLE default
6.41001
9.09459
13.3072
2.44372
6.81139
1.14749
30.9094
6.0913
6.07217
11.2168
3.71276
8.11361
1.94809
16.991
3.85298
3.20149
7.43775
3.51388
9.44727
0.953489
10.137
3.54581
4.2217
6.68836
1.72743

