# vtk DataFile Version 2.0
FEM, Created by Wutzow
ASCII
DATASET UNSTRUCTURED_GRID
POINTS 25 Float64
0 0 0
14.6458 31.1949 0
-58.1433 -90.1439 0
46.1144 59.9229 0
-13.4901 1.18846 0
63.1636 26.6771 0
-169.914 -221.041 0
0 0.333333 0
4.65712 -5.44333 0
123.674 169.589 0
-162.67 -212.793 0
4.3951 -3.42364 0
8.91482 -1.76787 0
257.644 333.251 0
0 0.666667 0
-12.4786 4.68552 0
-12.3757 -8.98231 0
122.111 161.54 0
3.7422 -3.87723 0
-0.6849 -20.9735 0
5.18299 13.674 0
0 1 0
-7.60356 -7.13161 0
7.82933 9.95374 0
-1.2527 -3.39327 0

CELLS 4 44
10 0 3 12 1 2 6 9 8 4 5
10 3 24 12 10 17 20 16 9 6 13
10 24 21 12 23 22 18 15 16 20 19
10 21 0 12 14 7 4 8 15 18 11

CELL_TYPES 4
69
69
69
69

CELL_DATA 4
POINT_DATA 25
VECTORS Y Float64
0 0 0.0
14.6458 31.1949 0.0
-58.1433 -90.1439 0.0
46.1144 59.9229 0.0
-13.4901 1.18846 0.0
63.1636 26.6771 0.0
-169.914 -221.041 0.0
0 0.333333 0.0
4.65712 -5.44333 0.0
123.674 169.589 0.0
-162.67 -212.793 0.0
4.3951 -3.42364 0.0
8.91482 -1.76787 0.0
257.644 333.251 0.0
0 0.666667 0.0
-12.4786 4.68552 0.0
-12.3757 -8.98231 0.0
122.111 161.54 0.0
3.7422 -3.87723 0.0
-0.6849 -20.9735 0.0
5.18299 13.674 0.0
0 1 0.0
-7.60356 -7.13161 0.0
7.82933 9.95374 0.0
-1.2527 -3.39327 0.0

CELL_DATA 4
POINT_DATA 25
VECTORS U Float64
0 0 0.0
14.3124 31.1949 0.0
-58.81 -90.1439 0.0
45.1144 59.9229 0.0
-13.6568 1.02179 0.0
62.6636 26.5105 0.0
-170.748 -221.208 0.0
0 0 0.0
4.32379 -5.77666 0.0
123.007 169.256 0.0
-163.67 -213.126 0.0
4.22843 -3.92364 0.0
8.41482 -2.26787 0.0
256.811 332.751 0.0
0 0 0.0
-12.8119 4.01885 0.0
-13.0423 -9.64898 0.0
121.111 160.873 0.0
3.57554 -4.71056 0.0
-1.1849 -21.8068 0.0
4.34966 12.8407 0.0
0 0 0.0
-7.93689 -8.13161 0.0
7.16267 8.95374 0.0
-2.2527 -4.39327 0.0

CELL_DATA 4
POINT_DATA 25
TENSORS E Float64
60.4466 53.5576  0.00
53.5576 95.1169  0.00
0.00 0.00  0.00

78.7915 85.7326  0.00
85.7326 132.811  0.00
0.00 0.00  0.00

126.469 113.987  0.00
113.987 189.251  0.00
0.00 0.00  0.00

25.5781 11.5939  0.00
11.5939 35.9776  0.00
0.00 0.00  0.00

67.7985 27.9874  0.00
27.9874 82.7244  0.00
0.00 0.00  0.00

11.0703 8.60937  0.00
8.60937 21.2349  0.00
0.00 0.00  0.00

272.744 302.117  0.00
302.117 433.825  0.00
0.00 0.00  0.00

160.411 77.5688  0.00
77.5688 83.3815  0.00
0.00 0.00  0.00

209.047 83.4578  0.00
83.4578 67.0657  0.00
0.00 0.00  0.00

316.265 165.928  0.00
165.928 188.173  0.00
0.00 0.00  0.00

39.9271 18.8558  0.00
18.8558 19.4497  0.00
0.00 0.00  0.00

88.1452 49.3948  0.00
49.3948 58.8008  0.00
0.00 0.00  0.00

32.6174 12.327  0.00
12.327 10.2486  0.00
0.00 0.00  0.00

630.583 272.564  0.00
272.564 227.387  0.00
0.00 0.00  0.00

22.0575 19.1859  0.00
19.1859 20.1347  0.00
0.00 0.00  0.00

40.3132 35.8563  0.00
35.8563 34.6964  0.00
0.00 0.00  0.00

50.0045 43.2066  0.00
43.2066 44.406  0.00
0.00 0.00  0.00

2.5361 1.58223  0.00
1.58223 3.53494  0.00
0.00 0.00  0.00

6.54053 3.326  0.00
3.326 9.24943  0.00
0.00 0.00  0.00

2.35642 2.27204  0.00
2.27204 2.57854  0.00
0.00 0.00  0.00

153.663 135.475  0.00
135.475 128.436  0.00
0.00 0.00  0.00

23.4045 20.4126  0.00
20.4126 22.2791  0.00
0.00 0.00  0.00

40.2485 34.519  0.00
34.519 31.831  0.00
0.00 0.00  0.00

54.2999 47.6781  0.00
47.6781 50.4367  0.00
0.00 0.00  0.00

2.72145 2.03564  0.00
2.03564 5.76771  0.00
0.00 0.00  0.00


CELL_DATA 4
POINT_DATA 25
TENSORS S Float64
60.4466 53.5576  0.00
53.5576 95.1169  0.00
0.00 0.00  0.00

78.7915 85.7326  0.00
85.7326 132.811  0.00
0.00 0.00  0.00

126.469 113.987  0.00
113.987 189.251  0.00
0.00 0.00  0.00

25.5781 11.5939  0.00
11.5939 35.9776  0.00
0.00 0.00  0.00

67.7985 27.9874  0.00
27.9874 82.7244  0.00
0.00 0.00  0.00

11.0703 8.60937  0.00
8.60937 21.2349  0.00
0.00 0.00  0.00

272.744 302.117  0.00
302.117 433.825  0.00
0.00 0.00  0.00

160.411 77.5688  0.00
77.5688 83.3815  0.00
0.00 0.00  0.00

209.047 83.4578  0.00
83.4578 67.0657  0.00
0.00 0.00  0.00

316.265 165.928  0.00
165.928 188.173  0.00
0.00 0.00  0.00

39.9271 18.8558  0.00
18.8558 19.4497  0.00
0.00 0.00  0.00

88.1452 49.3948  0.00
49.3948 58.8008  0.00
0.00 0.00  0.00

32.6174 12.327  0.00
12.327 10.2486  0.00
0.00 0.00  0.00

630.583 272.564  0.00
272.564 227.387  0.00
0.00 0.00  0.00

22.0575 19.1859  0.00
19.1859 20.1347  0.00
0.00 0.00  0.00

40.3132 35.8563  0.00
35.8563 34.6964  0.00
0.00 0.00  0.00

50.0045 43.2066  0.00
43.2066 44.406  0.00
0.00 0.00  0.00

2.5361 1.58223  0.00
1.58223 3.53494  0.00
0.00 0.00  0.00

6.54053 3.326  0.00
3.326 9.24943  0.00
0.00 0.00  0.00

2.35642 2.27204  0.00
2.27204 2.57854  0.00
0.00 0.00  0.00

153.663 135.475  0.00
135.475 128.436  0.00
0.00 0.00  0.00

23.4045 20.4126  0.00
20.4126 22.2791  0.00
0.00 0.00  0.00

40.2485 34.519  0.00
34.519 31.831  0.00
0.00 0.00  0.00

54.2999 47.6781  0.00
47.6781 50.4367  0.00
0.00 0.00  0.00

2.72145 2.03564  0.00
2.03564 5.76771  0.00
0.00 0.00  0.00


CELL_DATA 4
POINT_DATA 25
SCALARS ue float
LOOKUP_TABLE default
19719.2
33050.5
43597
2020.39
5723.29
2179.97
119290
88210.1
54043
206007
16907.1
61899.5
7199.41
183535
5647.09
10950.2
13120.4
320.224
907.989
491.497
42627.4
6662.7
11189.3
15698.2
518.651

