# vtk DataFile Version 2.0
FEM, Created by Wutzow
ASCII
DATASET UNSTRUCTURED_GRID
POINTS 25 Float64
0 0 0
2.29792 3.78415 0
-11.9567 -6.77814 0
10.6172 2.61955 0
4.47619 0.919183 0
-0.314081 -6.28297 0
-46.8973 -10.8869 0
0 0.333333 0
-1.92349 -0.728206 0
43.2482 9.36916 0
-37.5941 -8.82492 0
-0.733488 -5.74518 0
-5.08459 -0.462417 0
59.4068 13.8423 0
0 0.666667 0
6.81881 2.41107 0
-6.65162 -2.22749 0
31.9326 6.99959 0
-1.94278 -3.01101 0
-29.1873 -3.50931 0
15.4112 3.20697 0
0 1 0
-8.44166 -0.69642 0
13.1151 0.803348 0
-4.28898 -0.650801 0

CELLS 4 44
10 0 3 12 1 2 6 9 8 4 5
10 3 24 12 10 17 20 16 9 6 13
10 24 21 12 23 22 18 15 16 20 19
10 21 0 12 14 7 4 8 15 18 11

CELL_TYPES 4
69
69
69
69

CELL_DATA 4
POINT_DATA 25
VECTORS Y Float64
0 0 0.0
2.29792 3.78415 0.0
-11.9567 -6.77814 0.0
10.6172 2.61955 0.0
4.47619 0.919183 0.0
-0.314081 -6.28297 0.0
-46.8973 -10.8869 0.0
0 0.333333 0.0
-1.92349 -0.728206 0.0
43.2482 9.36916 0.0
-37.5941 -8.82492 0.0
-0.733488 -5.74518 0.0
-5.08459 -0.462417 0.0
59.4068 13.8423 0.0
0 0.666667 0.0
6.81881 2.41107 0.0
-6.65162 -2.22749 0.0
31.9326 6.99959 0.0
-1.94278 -3.01101 0.0
-29.1873 -3.50931 0.0
15.4112 3.20697 0.0
0 1 0.0
-8.44166 -0.69642 0.0
13.1151 0.803348 0.0
-4.28898 -0.650801 0.0

CELL_DATA 4
POINT_DATA 25
VECTORS U Float64
0 0 0.0
1.96459 3.78415 0.0
-12.6234 -6.77814 0.0
9.61724 2.61955 0.0
4.30953 0.752516 0.0
-0.814081 -6.44964 0.0
-47.7306 -11.0535 0.0
0 0 0.0
-2.25683 -1.06154 0.0
42.5816 9.03582 0.0
-38.5941 -9.15825 0.0
-0.900154 -6.24518 0.0
-5.58459 -0.962417 0.0
58.5735 13.3423 0.0
0 0 0.0
6.48548 1.7444 0.0
-7.31828 -2.89415 0.0
30.9326 6.33292 0.0
-2.10945 -3.84434 0.0
-29.6873 -4.34264 0.0
14.5778 2.37364 0.0
0 0 0.0
-8.775 -1.69642 0.0
12.4484 -0.196652 0.0
-5.28898 -1.6508 0.0

CELL_DATA 4
POINT_DATA 25
TENSORS E Float64
-0.121233 0.177915  0.00
0.177915 -0.422698  0.00
0.00 0.00  0.00

-0.070743 0.289257  0.00
0.289257 -0.3601  0.00
0.00 0.00  0.00

0.042356 0.540333  0.00
0.540333 -0.546176  0.00
0.00 0.00  0.00

-0.115087 0.0338515  0.00
0.0338515 -0.362414  0.00
0.00 0.00  0.00

0.256983 0.349425  0.00
0.349425 -0.624065  0.00
0.00 0.00  0.00

-0.186254 -0.0764177  0.00
-0.0764177 -0.270037  0.00
0.00 0.00  0.00

0.375234 1.43805  0.00
1.43805 -0.329905  0.00
0.00 0.00  0.00

1.55372 0.550553  0.00
0.550553 -0.812385  0.00
0.00 0.00  0.00

1.8665 0.508304  0.00
0.508304 -0.543219  0.00
0.00 0.00  0.00

2.46964 0.960832  0.00
0.960832 -0.988227  0.00
0.00 0.00  0.00

0.819651 0.490207  0.00
0.490207 -0.887501  0.00
0.00 0.00  0.00

1.0643 1.11444  0.00
1.11444 -1.50914  0.00
0.00 0.00  0.00

0.697898 0.223055  0.00
0.223055 -0.542208  0.00
0.00 0.00  0.00

4.52977 1.39308  0.00
1.39308 -0.259364  0.00
0.00 0.00  0.00

-0.335946 0.108119  0.00
0.108119 1.70626  0.00
0.00 0.00  0.00

-0.514765 0.575893  0.00
0.575893 1.20489  0.00
0.00 0.00  0.00

-0.0767139 0.069111  0.00
0.069111 2.92062  0.00
0.00 0.00  0.00

-0.187121 -0.270196  0.00
-0.270196 1.79337  0.00
0.00 0.00  0.00

0.445511 -1.21834  0.00
-1.21834 4.51903  0.00
0.00 0.00  0.00

-0.475941 0.16141  0.00
0.16141 0.654712  0.00
0.00 0.00  0.00

-0.188996 1.61732  0.00
1.61732 2.6798  0.00
0.00 0.00  0.00

-0.884779 -0.187781  0.00
-0.187781 2.01578  0.00
0.00 0.00  0.00

-0.650882 0.00129649  0.00
0.00129649 1.99747  0.00
0.00 0.00  0.00

-1.16026 -0.071265  0.00
-0.071265 2.82781  0.00
0.00 0.00  0.00

-0.892563 -0.305886  0.00
-0.305886 1.6097  0.00
0.00 0.00  0.00


CELL_DATA 4
POINT_DATA 25
TENSORS S Float64
-0.121233 0.177915  0.00
0.177915 -0.422698  0.00
0.00 0.00  0.00

-0.070743 0.289257  0.00
0.289257 -0.3601  0.00
0.00 0.00  0.00

0.042356 0.540333  0.00
0.540333 -0.546176  0.00
0.00 0.00  0.00

-0.115087 0.0338515  0.00
0.0338515 -0.362414  0.00
0.00 0.00  0.00

0.256983 0.349425  0.00
0.349425 -0.624065  0.00
0.00 0.00  0.00

-0.186254 -0.0764177  0.00
-0.0764177 -0.270037  0.00
0.00 0.00  0.00

0.375234 1.43805  0.00
1.43805 -0.329905  0.00
0.00 0.00  0.00

1.55372 0.550553  0.00
0.550553 -0.812385  0.00
0.00 0.00  0.00

1.8665 0.508304  0.00
0.508304 -0.543219  0.00
0.00 0.00  0.00

2.46964 0.960832  0.00
0.960832 -0.988227  0.00
0.00 0.00  0.00

0.819651 0.490207  0.00
0.490207 -0.887501  0.00
0.00 0.00  0.00

1.0643 1.11444  0.00
1.11444 -1.50914  0.00
0.00 0.00  0.00

0.697898 0.223055  0.00
0.223055 -0.542208  0.00
0.00 0.00  0.00

4.52977 1.39308  0.00
1.39308 -0.259364  0.00
0.00 0.00  0.00

-0.335946 0.108119  0.00
0.108119 1.70626  0.00
0.00 0.00  0.00

-0.514765 0.575893  0.00
0.575893 1.20489  0.00
0.00 0.00  0.00

-0.0767139 0.069111  0.00
0.069111 2.92062  0.00
0.00 0.00  0.00

-0.187121 -0.270196  0.00
-0.270196 1.79337  0.00
0.00 0.00  0.00

0.445511 -1.21834  0.00
-1.21834 4.51903  0.00
0.00 0.00  0.00

-0.475941 0.16141  0.00
0.16141 0.654712  0.00
0.00 0.00  0.00

-0.188996 1.61732  0.00
1.61732 2.6798  0.00
0.00 0.00  0.00

-0.884779 -0.187781  0.00
-0.187781 2.01578  0.00
0.00 0.00  0.00

-0.650882 0.00129649  0.00
0.00129649 1.99747  0.00
0.00 0.00  0.00

-1.16026 -0.071265  0.00
-0.071265 2.82781  0.00
0.00 0.00  0.00

-0.892563 -0.305886  0.00
-0.305886 1.6097  0.00
0.00 0.00  0.00


CELL_DATA 4
POINT_DATA 25
SCALARS ue float
LOOKUP_TABLE default
0.838018
1.11167
1.79158
0.424123
1.22551
0.136133
4.03785
1.5152
1.98524
2.87184
0.678265
1.42786
0.430217
6.12312
2.72265
1.589
5.29124
3.02137
8.58915
0.601378
4.88804
1.79431
2.07389
2.98614
1.20347

