# vtk DataFile Version 2.0
FEM, Created by Wutzow
ASCII
DATASET UNSTRUCTURED_GRID
POINTS 25 Float64
0 0 0
-14.0397 14.1418 0
24.434 -22.6537 0
-8.7374 6.59121 0
-17.8069 10.7347 0
48.0381 -38.1562 0
34.1598 -21.9053 0
0 0.333333 0
10.5684 -6.34379 0
-38.0155 23.3841 0
32.0019 -25.5131 0
3.01447 -7.06158 0
12.9444 -7.77999 0
-40.8863 25.9646 0
0 0.666667 0
-18.3903 13.1929 0
-8.63469 -1.90618 0
-25.1306 22.3566 0
5.67818 -6.44274 0
16.2549 -22.0564 0
-4.40478 11.6907 0
0 1 0
-5.32972 -1.99148 0
2.66599 5.02643 0
1.11627 -2.79275 0

CELLS 4 44
10 0 3 12 1 2 6 9 8 4 5
10 3 24 12 10 17 20 16 9 6 13
10 24 21 12 23 22 18 15 16 20 19
10 21 0 12 14 7 4 8 15 18 11

CELL_TYPES 4
69
69
69
69

CELL_DATA 4
POINT_DATA 25
VECTORS Y Float64
0 0 0.0
-14.0397 14.1418 0.0
24.434 -22.6537 0.0
-8.7374 6.59121 0.0
-17.8069 10.7347 0.0
48.0381 -38.1562 0.0
34.1598 -21.9053 0.0
0 0.333333 0.0
10.5684 -6.34379 0.0
-38.0155 23.3841 0.0
32.0019 -25.5131 0.0
3.01447 -7.06158 0.0
12.9444 -7.77999 0.0
-40.8863 25.9646 0.0
0 0.666667 0.0
-18.3903 13.1929 0.0
-8.63469 -1.90618 0.0
-25.1306 22.3566 0.0
5.67818 -6.44274 0.0
16.2549 -22.0564 0.0
-4.40478 11.6907 0.0
0 1 0.0
-5.32972 -1.99148 0.0
2.66599 5.02643 0.0
1.11627 -2.79275 0.0

CELL_DATA 4
POINT_DATA 25
VECTORS U Float64
0 0 0.0
-14.373 14.1418 0.0
23.7673 -22.6537 0.0
-9.7374 6.59121 0.0
-17.9736 10.568 0.0
47.5381 -38.3228 0.0
33.3264 -22.0719 0.0
0 0 0.0
10.235 -6.67713 0.0
-38.6821 23.0508 0.0
31.0019 -25.8464 0.0
2.8478 -7.56158 0.0
12.4444 -8.27999 0.0
-41.7196 25.4646 0.0
0 0 0.0
-18.7237 12.5262 0.0
-9.30135 -2.57285 0.0
-26.1306 21.69 0.0
5.51151 -7.27607 0.0
15.7549 -22.8898 0.0
-5.23812 10.8574 0.0
0 0 0.0
-5.66305 -2.99148 0.0
1.99932 4.02643 0.0
0.116269 -3.79275 0.0

CELL_DATA 4
POINT_DATA 25
TENSORS E Float64
-0.00357345 0.442192  0.00
0.442192 -0.994387  0.00
0.00 0.00  0.00

-0.0301283 0.398447  0.00
0.398447 -0.927899  0.00
0.00 0.00  0.00

0.0927249 0.85244  0.00
0.85244 -1.51066  0.00
0.00 0.00  0.00

-0.134758 0.224454  0.00
0.224454 -0.92124  0.00
0.00 0.00  0.00

-0.220159 0.525864  0.00
0.525864 -1.9106  0.00
0.00 0.00  0.00

-0.0428185 0.12428  0.00
0.12428 -0.485337  0.00
0.00 0.00  0.00

-0.0851855 1.06321  0.00
1.06321 -1.93928  0.00
0.00 0.00  0.00

3.89309 3.08949  0.00
3.08949 1.4599  0.00
0.00 0.00  0.00

3.59694 2.78944  0.00
2.78944 1.2535  0.00
0.00 0.00  0.00

7.81616 6.57547  0.00
6.57547 4.21581  0.00
0.00 0.00  0.00

2.56003 1.72188  0.00
1.72188 -0.0485147  0.00
0.00 0.00  0.00

7.01894 5.16082  0.00
5.16082 1.40646  0.00
0.00 0.00  0.00

0.841142 0.499644  0.00
0.499644 -0.334866  0.00
0.00 0.00  0.00

11.1749 9.16868  0.00
9.16868 5.90722  0.00
0.00 0.00  0.00

6.78398 12.0732  0.00
12.0732 22.1054  0.00
0.00 0.00  0.00

10.6083 17.5655  0.00
17.5655 28.2784  0.00
0.00 0.00  0.00

14.7647 24.3315  0.00
24.3315 43.8006  0.00
0.00 0.00  0.00

-0.0222191 1.95257  0.00
1.95257 7.33888  0.00
0.00 0.00  0.00

0.640931 4.83087  0.00
4.83087 20.2888  0.00
0.00 0.00  0.00

0.531916 1.99138  0.00
1.99138 3.81848  0.00
0.00 0.00  0.00

35.5734 54.6608  0.00
54.6608 85.4917  0.00
0.00 0.00  0.00

14.2958 9.97076  0.00
9.97076 10.3989  0.00
0.00 0.00  0.00

17.6009 11.1972  0.00
11.1972 10.2636  0.00
0.00 0.00  0.00

29.3811 19.5644  0.00
19.5644 17.8567  0.00
0.00 0.00  0.00

3.30848 4.15599  0.00
4.15599 6.91842  0.00
0.00 0.00  0.00


CELL_DATA 4
POINT_DATA 25
TENSORS S Float64
-0.00357345 0.442192  0.00
0.442192 -0.994387  0.00
0.00 0.00  0.00

-0.0301283 0.398447  0.00
0.398447 -0.927899  0.00
0.00 0.00  0.00

0.0927249 0.85244  0.00
0.85244 -1.51066  0.00
0.00 0.00  0.00

-0.134758 0.224454  0.00
0.224454 -0.92124  0.00
0.00 0.00  0.00

-0.220159 0.525864  0.00
0.525864 -1.9106  0.00
0.00 0.00  0.00

-0.0428185 0.12428  0.00
0.12428 -0.485337  0.00
0.00 0.00  0.00

-0.0851855 1.06321  0.00
1.06321 -1.93928  0.00
0.00 0.00  0.00

3.89309 3.08949  0.00
3.08949 1.4599  0.00
0.00 0.00  0.00

3.59694 2.78944  0.00
2.78944 1.2535  0.00
0.00 0.00  0.00

7.81616 6.57547  0.00
6.57547 4.21581  0.00
0.00 0.00  0.00

2.56003 1.72188  0.00
1.72188 -0.0485147  0.00
0.00 0.00  0.00

7.01894 5.16082  0.00
5.16082 1.40646  0.00
0.00 0.00  0.00

0.841142 0.499644  0.00
0.499644 -0.334866  0.00
0.00 0.00  0.00

11.1749 9.16868  0.00
9.16868 5.90722  0.00
0.00 0.00  0.00

6.78398 12.0732  0.00
12.0732 22.1054  0.00
0.00 0.00  0.00

10.6083 17.5655  0.00
17.5655 28.2784  0.00
0.00 0.00  0.00

14.7647 24.3315  0.00
24.3315 43.8006  0.00
0.00 0.00  0.00

-0.0222191 1.95257  0.00
1.95257 7.33888  0.00
0.00 0.00  0.00

0.640931 4.83087  0.00
4.83087 20.2888  0.00
0.00 0.00  0.00

0.531916 1.99138  0.00
1.99138 3.81848  0.00
0.00 0.00  0.00

35.5734 54.6608  0.00
54.6608 85.4917  0.00
0.00 0.00  0.00

14.2958 9.97076  0.00
9.97076 10.3989  0.00
0.00 0.00  0.00

17.6009 11.1972  0.00
11.1972 10.2636  0.00
0.00 0.00  0.00

29.3811 19.5644  0.00
19.5644 17.8567  0.00
0.00 0.00  0.00

3.30848 4.15599  0.00
4.15599 6.91842  0.00
0.00 0.00  0.00


CELL_DATA 4
POINT_DATA 25
SCALARS ue float
LOOKUP_TABLE default
2.3408
0.844683
5.6653
0.625119
2.07394
0.215133
3.0109
65.444
50.9224
154.518
15.0522
54.5952
5.44018
180.778
757.426
1099.47
1536.68
102.33
275.87
109.974
3416.97
480.65
630.289
963.468
85.0792

