# vtk DataFile Version 2.0
FEM, Created by Wutzow
ASCII
DATASET UNSTRUCTURED_GRID
POINTS 25 Float64
0 0 0
0.858726 2.11437 0
-0.6763 -3.02947 0
-0.182762 0.54492 0
1.99476 -2.37571 0
-5.5081 2.01441 0
-0.237338 1.06793 0
0 0.333333 0
-1.10935 1.20403 0
1.95181 -3.26116 0
1.19874 -2.62255 0
-0.9132 -4.09093 0
-1.31548 1.86602 0
-1.54687 1.21085 0
0 0.666667 0
1.58572 -0.466864 0
1.48786 -3.39657 0
-0.526042 2.47277 0
-0.260903 -2.07715 0
-2.73349 0.662781 0
0.259073 1.89489 0
0 1 0
-0.903436 -1.45679 0
1.33348 0.927793 0
-0.185737 -0.145421 0

CELLS 4 44
10 0 3 12 1 2 6 9 8 4 5
10 3 24 12 10 17 20 16 9 6 13
10 24 21 12 23 22 18 15 16 20 19
10 21 0 12 14 7 4 8 15 18 11

CELL_TYPES 4
69
69
69
69

CELL_DATA 4
POINT_DATA 25
VECTORS Y Float64
0 0 0.0
0.858726 2.11437 0.0
-0.6763 -3.02947 0.0
-0.182762 0.54492 0.0
1.99476 -2.37571 0.0
-5.5081 2.01441 0.0
-0.237338 1.06793 0.0
0 0.333333 0.0
-1.10935 1.20403 0.0
1.95181 -3.26116 0.0
1.19874 -2.62255 0.0
-0.9132 -4.09093 0.0
-1.31548 1.86602 0.0
-1.54687 1.21085 0.0
0 0.666667 0.0
1.58572 -0.466864 0.0
1.48786 -3.39657 0.0
-0.526042 2.47277 0.0
-0.260903 -2.07715 0.0
-2.73349 0.662781 0.0
0.259073 1.89489 0.0
0 1 0.0
-0.903436 -1.45679 0.0
1.33348 0.927793 0.0
-0.185737 -0.145421 0.0

CELL_DATA 4
POINT_DATA 25
VECTORS U Float64
0 0 0.0
0.525393 2.11437 0.0
-1.34297 -3.02947 0.0
-1.18276 0.54492 0.0
1.82809 -2.54238 0.0
-6.0081 1.84774 0.0
-1.07067 0.901263 0.0
0 0 0.0
-1.44268 0.870699 0.0
1.28515 -3.5945 0.0
0.198739 -2.95588 0.0
-1.07987 -4.59093 0.0
-1.81548 1.36602 0.0
-2.38021 0.710849 0.0
0 0 0.0
1.25239 -1.13353 0.0
0.821189 -4.06324 0.0
-1.52604 1.8061 0.0
-0.42757 -2.91048 0.0
-3.23349 -0.170552 0.0
-0.57426 1.06156 0.0
0 0 0.0
-1.23677 -2.45679 0.0
0.666814 -0.0722075 0.0
-1.18574 -1.14542 0.0

CELL_DATA 4
POINT_DATA 25
TENSORS E Float64
4.43845 4.16217  0.00
4.16217 3.55326  0.00
0.00 0.00  0.00

4.49689 3.71936  0.00
3.71936 3.00176  0.00
0.00 0.00  0.00

9.62343 8.49032  0.00
8.49032 7.19167  0.00
0.00 0.00  0.00

0.901357 1.79352  0.00
1.79352 1.82844  0.00
0.00 0.00  0.00

2.84714 4.48255  0.00
4.48255 4.52895  0.00
0.00 0.00  0.00

0.57996 0.923623  0.00
0.923623 0.83392  0.00
0.00 0.00  0.00

13.9477 10.8676  0.00
10.8676 8.83264  0.00
0.00 0.00  0.00

40.5979 32.8568  0.00
32.8568 29.4407  0.00
0.00 0.00  0.00

36.876 30.4389  0.00
30.4389 24.8319  0.00
0.00 0.00  0.00

86.9395 72.3443  0.00
72.3443 68.0911  0.00
0.00 0.00  0.00

25.7327 16.1223  0.00
16.1223 10.1083  0.00
0.00 0.00  0.00

80.4596 51.7986  0.00
51.7986 35.8887  0.00
0.00 0.00  0.00

5.47649 3.93524  0.00
3.93524 2.44172  0.00
0.00 0.00  0.00

125.183 104.575  0.00
104.575 88.018  0.00
0.00 0.00  0.00

97.945 144.253  0.00
144.253 233.963  0.00
0.00 0.00  0.00

136.856 198.924  0.00
198.924 315.801  0.00
0.00 0.00  0.00

202.796 291.766  0.00
291.766 468.375  0.00
0.00 0.00  0.00

19.106 33.3834  0.00
33.3834 59.142  0.00
0.00 0.00  0.00

52.7275 90.7129  0.00
90.7129 164.163  0.00
0.00 0.00  0.00

14.2811 22.7165  0.00
22.7165 37.0187  0.00
0.00 0.00  0.00

440.019 621.388  0.00
621.388 967.446  0.00
0.00 0.00  0.00

182.832 117.608  0.00
117.608 93.9021  0.00
0.00 0.00  0.00

218.883 131.3  0.00
131.3 95.4098  0.00
0.00 0.00  0.00

365.344 227.939  0.00
227.939 172.135  0.00
0.00 0.00  0.00

54.211 50.8549  0.00
50.8549 56.5075  0.00
0.00 0.00  0.00


CELL_DATA 4
POINT_DATA 25
TENSORS S Float64
4.43845 4.16217  0.00
4.16217 3.55326  0.00
0.00 0.00  0.00

4.49689 3.71936  0.00
3.71936 3.00176  0.00
0.00 0.00  0.00

9.62343 8.49032  0.00
8.49032 7.19167  0.00
0.00 0.00  0.00

0.901357 1.79352  0.00
1.79352 1.82844  0.00
0.00 0.00  0.00

2.84714 4.48255  0.00
4.48255 4.52895  0.00
0.00 0.00  0.00

0.57996 0.923623  0.00
0.923623 0.83392  0.00
0.00 0.00  0.00

13.9477 10.8676  0.00
10.8676 8.83264  0.00
0.00 0.00  0.00

40.5979 32.8568  0.00
32.8568 29.4407  0.00
0.00 0.00  0.00

36.876 30.4389  0.00
30.4389 24.8319  0.00
0.00 0.00  0.00

86.9395 72.3443  0.00
72.3443 68.0911  0.00
0.00 0.00  0.00

25.7327 16.1223  0.00
16.1223 10.1083  0.00
0.00 0.00  0.00

80.4596 51.7986  0.00
51.7986 35.8887  0.00
0.00 0.00  0.00

5.47649 3.93524  0.00
3.93524 2.44172  0.00
0.00 0.00  0.00

125.183 104.575  0.00
104.575 88.018  0.00
0.00 0.00  0.00

97.945 144.253  0.00
144.253 233.963  0.00
0.00 0.00  0.00

136.856 198.924  0.00
198.924 315.801  0.00
0.00 0.00  0.00

202.796 291.766  0.00
291.766 468.375  0.00
0.00 0.00  0.00

19.106 33.3834  0.00
33.3834 59.142  0.00
0.00 0.00  0.00

52.7275 90.7129  0.00
90.7129 164.163  0.00
0.00 0.00  0.00

14.2811 22.7165  0.00
22.7165 37.0187  0.00
0.00 0.00  0.00

440.019 621.388  0.00
621.388 967.446  0.00
0.00 0.00  0.00

182.832 117.608  0.00
117.608 93.9021  0.00
0.00 0.00  0.00

218.883 131.3  0.00
131.3 95.4098  0.00
0.00 0.00  0.00

365.344 227.939  0.00
227.939 172.135  0.00
0.00 0.00  0.00

54.211 50.8549  0.00
50.8549 56.5075  0.00
0.00 0.00  0.00


CELL_DATA 4
POINT_DATA 25
SCALARS ue float
LOOKUP_TABLE default
281.942
94.2743
704.341
51.7179
200.027
16.0718
366.67
8681.59
6695.14
20546.7
1996.53
7323.22
693
23866.3
98529.9
143586
199957
12723.7
34103.3
14270.6
446404
62371
81973
125354
10708.5

