# vtk DataFile Version 2.0
FEM, Created by Wutzow
ASCII
DATASET UNSTRUCTURED_GRID
POINTS 25 Float64
0 0 0
-15.9267 -15.9826 0
37.603 34.2818 0
-21.4776 -18.747 0
-77.7681 -0.105073 0
119.801 22.5709 0
71.8972 69.6601 0
0 0.333333 0
59.1868 0.360086 0
-77.4905 -49.7702 0
74.4255 66.533 0
9.78362 -4.12299 0
40.7732 -0.554346 0
-123.427 -119.013 0
0 0.666667 0
-57.2294 3.49919 0
-66.0424 6.02117 0
-39.4817 -47.189 0
17.0311 -3.84937 0
-66.2442 -11.9377 0
43.8851 -2.7456 0
0 1 0
-86.9779 -22.0636 0
94.1626 21.756 0
-15.9903 -2.20621 0

CELLS 4 44
10 0 3 12 1 2 6 9 8 4 5
10 3 24 12 10 17 20 16 9 6 13
10 24 21 12 23 22 18 15 16 20 19
10 21 0 12 14 7 4 8 15 18 11

CELL_TYPES 4
69
69
69
69

CELL_DATA 4
POINT_DATA 25
VECTORS Y Float64
0 0 0.0
-15.9267 -15.9826 0.0
37.603 34.2818 0.0
-21.4776 -18.747 0.0
-77.7681 -0.105073 0.0
119.801 22.5709 0.0
71.8972 69.6601 0.0
0 0.333333 0.0
59.1868 0.360086 0.0
-77.4905 -49.7702 0.0
74.4255 66.533 0.0
9.78362 -4.12299 0.0
40.7732 -0.554346 0.0
-123.427 -119.013 0.0
0 0.666667 0.0
-57.2294 3.49919 0.0
-66.0424 6.02117 0.0
-39.4817 -47.189 0.0
17.0311 -3.84937 0.0
-66.2442 -11.9377 0.0
43.8851 -2.7456 0.0
0 1 0.0
-86.9779 -22.0636 0.0
94.1626 21.756 0.0
-15.9903 -2.20621 0.0

CELL_DATA 4
POINT_DATA 25
VECTORS U Float64
0 0 0.0
-16.26 -15.9826 0.0
36.9363 34.2818 0.0
-22.4776 -18.747 0.0
-77.9347 -0.27174 0.0
119.301 22.4042 0.0
71.0639 69.4935 0.0
0 0 0.0
58.8535 0.026753 0.0
-78.1571 -50.1035 0.0
73.4255 66.1997 0.0
9.61695 -4.62299 0.0
40.2732 -1.05435 0.0
-124.26 -119.513 0.0
0 0 0.0
-57.5627 2.83253 0.0
-66.709 5.35451 0.0
-40.4817 -47.8557 0.0
16.8645 -4.68271 0.0
-66.7442 -12.771 0.0
43.0518 -3.57894 0.0
0 0 0.0
-87.3112 -23.0636 0.0
93.4959 20.756 0.0
-16.9903 -3.20621 0.0

CELL_DATA 4
POINT_DATA 25
TENSORS E Float64
154.918 250.786  0.00
250.786 1061.49  0.00
0.00 0.00  0.00

164.545 194.742  0.00
194.742 777.735  0.00
0.00 0.00  0.00

287.467 394.875  0.00
394.875 1667.77  0.00
0.00 0.00  0.00

92.8939 239.259  0.00
239.259 1059.8  0.00
0.00 0.00  0.00

244.289 512.472  0.00
512.472 2322.47  0.00
0.00 0.00  0.00

40.7797 115.121  0.00
115.121 489.982  0.00
0.00 0.00  0.00

446.506 375.944  0.00
375.944 1422.97  0.00
0.00 0.00  0.00

169.378 99.7001  0.00
99.7001 152.072  0.00
0.00 0.00  0.00

144.027 82.6182  0.00
82.6182 121.758  0.00
0.00 0.00  0.00

251.307 144.327  0.00
144.327 234.631  0.00
0.00 0.00  0.00

148.268 94.5613  0.00
94.5613 140.499  0.00
0.00 0.00  0.00

269.5 177.783  0.00
177.783 288.096  0.00
0.00 0.00  0.00

90.0755 54.7079  0.00
54.7079 74.8524  0.00
0.00 0.00  0.00

258.469 140.504  0.00
140.504 223.295  0.00
0.00 0.00  0.00

101.359 0.575528  0.00
0.575528 69.8024  0.00
0.00 0.00  0.00

133.937 -11.2487  0.00
-11.2487 100.474  0.00
0.00 0.00  0.00

214.696 0.87146  0.00
0.87146 143.923  0.00
0.00 0.00  0.00

21.5957 6.98193  0.00
6.98193 14.3814  0.00
0.00 0.00  0.00

58.0006 17.4069  0.00
17.4069 37.7815  0.00
0.00 0.00  0.00

15.2218 1.81504  0.00
1.81504 10.7634  0.00
0.00 0.00  0.00

442.075 -39.943  0.00
-39.943 326.224  0.00
0.00 0.00  0.00

371.223 127.409  0.00
127.409 135.748  0.00
0.00 0.00  0.00

506.023 185.414  0.00
185.414 101.357  0.00
0.00 0.00  0.00

737.059 254.19  0.00
254.19 279.535  0.00
0.00 0.00  0.00

75.3068 19.7671  0.00
19.7671 126.115  0.00
0.00 0.00  0.00


CELL_DATA 4
POINT_DATA 25
TENSORS S Float64
154.918 250.786  0.00
250.786 1061.49  0.00
0.00 0.00  0.00

164.545 194.742  0.00
194.742 777.735  0.00
0.00 0.00  0.00

287.467 394.875  0.00
394.875 1667.77  0.00
0.00 0.00  0.00

92.8939 239.259  0.00
239.259 1059.8  0.00
0.00 0.00  0.00

244.289 512.472  0.00
512.472 2322.47  0.00
0.00 0.00  0.00

40.7797 115.121  0.00
115.121 489.982  0.00
0.00 0.00  0.00

446.506 375.944  0.00
375.944 1422.97  0.00
0.00 0.00  0.00

169.378 99.7001  0.00
99.7001 152.072  0.00
0.00 0.00  0.00

144.027 82.6182  0.00
82.6182 121.758  0.00
0.00 0.00  0.00

251.307 144.327  0.00
144.327 234.631  0.00
0.00 0.00  0.00

148.268 94.5613  0.00
94.5613 140.499  0.00
0.00 0.00  0.00

269.5 177.783  0.00
177.783 288.096  0.00
0.00 0.00  0.00

90.0755 54.7079  0.00
54.7079 74.8524  0.00
0.00 0.00  0.00

258.469 140.504  0.00
140.504 223.295  0.00
0.00 0.00  0.00

101.359 0.575528  0.00
0.575528 69.8024  0.00
0.00 0.00  0.00

133.937 -11.2487  0.00
-11.2487 100.474  0.00
0.00 0.00  0.00

214.696 0.87146  0.00
0.87146 143.923  0.00
0.00 0.00  0.00

21.5957 6.98193  0.00
6.98193 14.3814  0.00
0.00 0.00  0.00

58.0006 17.4069  0.00
17.4069 37.7815  0.00
0.00 0.00  0.00

15.2218 1.81504  0.00
1.81504 10.7634  0.00
0.00 0.00  0.00

442.075 -39.943  0.00
-39.943 326.224  0.00
0.00 0.00  0.00

371.223 127.409  0.00
127.409 135.748  0.00
0.00 0.00  0.00

506.023 185.414  0.00
185.414 101.357  0.00
0.00 0.00  0.00

737.059 254.19  0.00
254.19 279.535  0.00
0.00 0.00  0.00

75.3068 19.7671  0.00
19.7671 126.115  0.00
0.00 0.00  0.00


CELL_DATA 4
POINT_DATA 25
SCALARS ue float
LOOKUP_TABLE default
241713
166991
390163
246544
564075
103357
314148
15128.8
12140.9
23160.8
13077.1
24641.2
7732.29
21525.8
25557.9
27612.8
58445.7
4011.33
14523.9
2431.52
95494.2
248275
343893
493648
47587

