# vtk DataFile Version 2.0
FEM, Created by Wutzow
ASCII
DATASET UNSTRUCTURED_GRID
POINTS 25 Float64
0 0 0
6.29503 14.301 0
-27.5849 -40.8069 0
22.8538 26.8446 0
-4.12949 0.350358 0
26.6767 12.203 0
-87.3915 -96.3006 0
0 0.333333 0
1.32609 -2.81493 0
65.514 72.9782 0
-79.9379 -96.413 0
1.77765 -4.46677 0
2.18343 -0.0956506 0
134.369 145.073 0
0 0.666667 0
-3.0485 2.13094 0
0.96839 -8.79446 0
58.3565 74.6393 0
0.899277 -3.01498 0
6.64911 -15.7354 0
-3.82048 11.2334 0
0 1 0
0.02416 -6.37604 0
-1.27402 8.27677 0
0.91386 -2.69505 0

CELLS 4 44
10 0 3 12 1 2 6 9 8 4 5
10 3 24 12 10 17 20 16 9 6 13
10 24 21 12 23 22 18 15 16 20 19
10 21 0 12 14 7 4 8 15 18 11

CELL_TYPES 4
69
69
69
69

CELL_DATA 4
POINT_DATA 25
VECTORS Y Float64
0 0 0.0
6.29503 14.301 0.0
-27.5849 -40.8069 0.0
22.8538 26.8446 0.0
-4.12949 0.350358 0.0
26.6767 12.203 0.0
-87.3915 -96.3006 0.0
0 0.333333 0.0
1.32609 -2.81493 0.0
65.514 72.9782 0.0
-79.9379 -96.413 0.0
1.77765 -4.46677 0.0
2.18343 -0.0956506 0.0
134.369 145.073 0.0
0 0.666667 0.0
-3.0485 2.13094 0.0
0.96839 -8.79446 0.0
58.3565 74.6393 0.0
0.899277 -3.01498 0.0
6.64911 -15.7354 0.0
-3.82048 11.2334 0.0
0 1 0.0
0.02416 -6.37604 0.0
-1.27402 8.27677 0.0
0.91386 -2.69505 0.0

CELL_DATA 4
POINT_DATA 25
VECTORS U Float64
0 0 0.0
5.96169 14.301 0.0
-28.2516 -40.8069 0.0
21.8538 26.8446 0.0
-4.29615 0.183691 0.0
26.1767 12.0363 0.0
-88.2249 -96.4673 0.0
0 0 0.0
0.992752 -3.14826 0.0
64.8473 72.6449 0.0
-80.9379 -96.7463 0.0
1.61099 -4.96677 0.0
1.68343 -0.595651 0.0
133.536 144.573 0.0
0 0 0.0
-3.38184 1.46428 0.0
0.301723 -9.46112 0.0
57.3565 73.9727 0.0
0.73261 -3.84831 0.0
6.14911 -16.5687 0.0
-4.65381 10.4 0.0
0 0 0.0
-0.309173 -7.37604 0.0
-1.94069 7.27677 0.0
-0.0861399 -3.69505 0.0

CELL_DATA 4
POINT_DATA 25
TENSORS E Float64
11.3917 11.2831  0.00
11.2831 17.2918  0.00
0.00 0.00  0.00

15.2541 17.5524  0.00
17.5524 25.046  0.00
0.00 0.00  0.00

24.0465 23.601  0.00
23.601 34.9517  0.00
0.00 0.00  0.00

4.42445 2.92494  0.00
2.92494 5.73641  0.00
0.00 0.00  0.00

11.7904 6.80587  0.00
6.80587 13.3084  0.00
0.00 0.00  0.00

1.97279 2.05134  0.00
2.05134 3.55257  0.00
0.00 0.00  0.00

53.2951 60.924  0.00
60.924 83.2472  0.00
0.00 0.00  0.00

31.1959 15.6712  0.00
15.6712 15.3177  0.00
0.00 0.00  0.00

41.0263 16.8737  0.00
16.8737 12.2362  0.00
0.00 0.00  0.00

61.5458 33.3484  0.00
33.3484 35.3662  0.00
0.00 0.00  0.00

7.34353 3.96906  0.00
3.96906 2.88938  0.00
0.00 0.00  0.00

15.8527 10.2236  0.00
10.2236 9.76905  0.00
0.00 0.00  0.00

6.31606 2.59224  0.00
2.59224 1.49237  0.00
0.00 0.00  0.00

123.893 54.8134  0.00
54.8134 42.854  0.00
0.00 0.00  0.00

3.91783 3.78947  0.00
3.78947 5.02835  0.00
0.00 0.00  0.00

7.23126 7.4217  0.00
7.4217 7.40704  0.00
0.00 0.00  0.00

9.38781 8.38754  0.00
8.38754 10.4675  0.00
0.00 0.00  0.00

0.397296 0.0545013  0.00
0.0545013 2.01647  0.00
0.00 0.00  0.00

1.69765 -0.435598  0.00
-0.435598 5.1541  0.00
0.00 0.00  0.00

0.102653 0.567796  0.00
0.567796 0.971803  0.00
0.00 0.00  0.00

28.9687 27.5432  0.00
27.5432 26.1516  0.00
0.00 0.00  0.00

3.64361 3.82156  0.00
3.82156 5.52805  0.00
0.00 0.00  0.00

7.13619 6.67423  0.00
6.67423 7.33741  0.00
0.00 0.00  0.00

9.17452 9.24086  0.00
9.24086 11.299  0.00
0.00 0.00  0.00

-0.341443 0.17563  0.00
0.17563 2.13627  0.00
0.00 0.00  0.00


CELL_DATA 4
POINT_DATA 25
TENSORS S Float64
11.3917 11.2831  0.00
11.2831 17.2918  0.00
0.00 0.00  0.00

15.2541 17.5524  0.00
17.5524 25.046  0.00
0.00 0.00  0.00

24.0465 23.601  0.00
23.601 34.9517  0.00
0.00 0.00  0.00

4.42445 2.92494  0.00
2.92494 5.73641  0.00
0.00 0.00  0.00

11.7904 6.80587  0.00
6.80587 13.3084  0.00
0.00 0.00  0.00

1.97279 2.05134  0.00
2.05134 3.55257  0.00
0.00 0.00  0.00

53.2951 60.924  0.00
60.924 83.2472  0.00
0.00 0.00  0.00

31.1959 15.6712  0.00
15.6712 15.3177  0.00
0.00 0.00  0.00

41.0263 16.8737  0.00
16.8737 12.2362  0.00
0.00 0.00  0.00

61.5458 33.3484  0.00
33.3484 35.3662  0.00
0.00 0.00  0.00

7.34353 3.96906  0.00
3.96906 2.88938  0.00
0.00 0.00  0.00

15.8527 10.2236  0.00
10.2236 9.76905  0.00
0.00 0.00  0.00

6.31606 2.59224  0.00
2.59224 1.49237  0.00
0.00 0.00  0.00

123.893 54.8134  0.00
54.8134 42.854  0.00
0.00 0.00  0.00

3.91783 3.78947  0.00
3.78947 5.02835  0.00
0.00 0.00  0.00

7.23126 7.4217  0.00
7.4217 7.40704  0.00
0.00 0.00  0.00

9.38781 8.38754  0.00
8.38754 10.4675  0.00
0.00 0.00  0.00

0.397296 0.0545013  0.00
0.0545013 2.01647  0.00
0.00 0.00  0.00

1.69765 -0.435598  0.00
-0.435598 5.1541  0.00
0.00 0.00  0.00

0.102653 0.567796  0.00
0.567796 0.971803  0.00
0.00 0.00  0.00

28.9687 27.5432  0.00
27.5432 26.1516  0.00
0.00 0.00  0.00

3.64361 3.82156  0.00
3.82156 5.52805  0.00
0.00 0.00  0.00

7.13619 6.67423  0.00
6.67423 7.33741  0.00
0.00 0.00  0.00

9.17452 9.24086  0.00
9.24086 11.299  0.00
0.00 0.00  0.00

-0.341443 0.17563  0.00
0.17563 2.13627  0.00
0.00 0.00  0.00


CELL_DATA 4
POINT_DATA 25
SCALARS ue float
LOOKUP_TABLE default
764.124
1284.69
1691.54
75.6602
215.378
83.6967
4643.1
3441.62
2113.45
8038.04
659.044
2413.12
280.76
7182.37
226.25
435.333
524.836
15.5245
44.1826
19.9721
1693.9
264.377
445.088
621.74
21.1796

