# vtk DataFile Version 2.0
FEM, Created by Wutzow
ASCII
DATASET UNSTRUCTURED_GRID
POINTS 25 Float64
0 0 0
-5.61 -8.33643 0
11.2321 19.8069 0
-5.32199 -11.8473 0
-34.772 0.0738068 0
56.9294 7.25332 0
15.6989 44.3682 0
0 0.333333 0
26.4394 -0.199488 0
-21.7275 -32.5533 0
18.391 41.7289 0
4.24918 -5.13116 0
17.7811 0.385164 0
-30.2374 -74.1224 0
0 0.666667 0
-25.0852 1.58077 0
-28.0892 0.447375 0
-6.97159 -29.4212 0
7.5257 -2.93483 0
-27.9763 -7.62251 0
18.3113 0.853416 0
0 1 0
-37.9469 -11.9411 0
40.8847 11.7447 0
-6.82459 -1.49415 0

CELLS 4 44
10 0 3 12 1 2 6 9 8 4 5
10 3 24 12 10 17 20 16 9 6 13
10 24 21 12 23 22 18 15 16 20 19
10 21 0 12 14 7 4 8 15 18 11

CELL_TYPES 4
69
69
69
69

CELL_DATA 4
POINT_DATA 25
VECTORS Y Float64
0 0 0.0
-5.61 -8.33643 0.0
11.2321 19.8069 0.0
-5.32199 -11.8473 0.0
-34.772 0.0738068 0.0
56.9294 7.25332 0.0
15.6989 44.3682 0.0
0 0.333333 0.0
26.4394 -0.199488 0.0
-21.7275 -32.5533 0.0
18.391 41.7289 0.0
4.24918 -5.13116 0.0
17.7811 0.385164 0.0
-30.2374 -74.1224 0.0
0 0.666667 0.0
-25.0852 1.58077 0.0
-28.0892 0.447375 0.0
-6.97159 -29.4212 0.0
7.5257 -2.93483 0.0
-27.9763 -7.62251 0.0
18.3113 0.853416 0.0
0 1 0.0
-37.9469 -11.9411 0.0
40.8847 11.7447 0.0
-6.82459 -1.49415 0.0

CELL_DATA 4
POINT_DATA 25
VECTORS U Float64
0 0 0.0
-5.94333 -8.33643 0.0
10.5654 19.8069 0.0
-6.32199 -11.8473 0.0
-34.9386 -0.0928599 0.0
56.4294 7.08665 0.0
14.8656 44.2015 0.0
0 0 0.0
26.1061 -0.532821 0.0
-22.3942 -32.8867 0.0
17.391 41.3955 0.0
4.08251 -5.63116 0.0
17.2811 -0.114836 0.0
-31.0708 -74.6224 0.0
0 0 0.0
-25.4185 0.914106 0.0
-28.7558 -0.219291 0.0
-7.97159 -30.0878 0.0
7.35903 -3.76816 0.0
-28.4763 -8.45584 0.0
17.478 0.0200823 0.0
0 0 0.0
-38.2802 -12.9411 0.0
40.218 10.7447 0.0
-7.82459 -2.49415 0.0

CELL_DATA 4
POINT_DATA 25
TENSORS E Float64
29.3208 49.3879  0.00
49.3879 209.114  0.00
0.00 0.00  0.00

31.4835 38.3304  0.00
38.3304 153.073  0.00
0.00 0.00  0.00

54.6811 77.659  0.00
77.659 328.413  0.00
0.00 0.00  0.00

17.1534 47.1778  0.00
47.1778 208.918  0.00
0.00 0.00  0.00

45.5345 100.908  0.00
100.908 457.703  0.00
0.00 0.00  0.00

7.50739 22.7511  0.00
22.7511 96.6002  0.00
0.00 0.00  0.00

86.0411 73.7581  0.00
73.7581 279.574  0.00
0.00 0.00  0.00

31.6804 19.8732  0.00
19.8732 29.1179  0.00
0.00 0.00  0.00

26.8478 16.5359  0.00
16.5359 23.2638  0.00
0.00 0.00  0.00

46.8395 28.8618  0.00
28.8618 44.8741  0.00
0.00 0.00  0.00

27.8246 18.7773  0.00
18.7773 26.9939  0.00
0.00 0.00  0.00

50.2818 35.4009  0.00
35.4009 55.4031  0.00
0.00 0.00  0.00

16.9706 10.8401  0.00
10.8401 14.3716  0.00
0.00 0.00  0.00

47.7518 28.4254  0.00
28.4254 42.4625  0.00
0.00 0.00  0.00

19.3973 -0.193961  0.00
-0.193961 14.6153  0.00
0.00 0.00  0.00

25.5991 -2.13987  0.00
-2.13987 20.2101  0.00
0.00 0.00  0.00

41.6179 -0.48724  0.00
-0.48724 29.7825  0.00
0.00 0.00  0.00

3.95877 0.845043  0.00
0.845043 3.93257  0.00
0.00 0.00  0.00

11.401 1.71615  0.00
1.71615 10.2829  0.00
0.00 0.00  0.00

2.56274 0.351846  0.00
0.351846 2.47069  0.00
0.00 0.00  0.00

85.6674 -7.68704  0.00
-7.68704 64.8667  0.00
0.00 0.00  0.00

72.44 24.8122  0.00
24.8122 27.8464  0.00
0.00 0.00  0.00

99.1985 36.3252  0.00
36.3252 20.9769  0.00
0.00 0.00  0.00

144.163 49.7559  0.00
49.7559 56.4645  0.00
0.00 0.00  0.00

14.0927 3.59369  0.00
3.59369 25.8302  0.00
0.00 0.00  0.00


CELL_DATA 4
POINT_DATA 25
TENSORS S Float64
29.3208 49.3879  0.00
49.3879 209.114  0.00
0.00 0.00  0.00

31.4835 38.3304  0.00
38.3304 153.073  0.00
0.00 0.00  0.00

54.6811 77.659  0.00
77.659 328.413  0.00
0.00 0.00  0.00

17.1534 47.1778  0.00
47.1778 208.918  0.00
0.00 0.00  0.00

45.5345 100.908  0.00
100.908 457.703  0.00
0.00 0.00  0.00

7.50739 22.7511  0.00
22.7511 96.6002  0.00
0.00 0.00  0.00

86.0411 73.7581  0.00
73.7581 279.574  0.00
0.00 0.00  0.00

31.6804 19.8732  0.00
19.8732 29.1179  0.00
0.00 0.00  0.00

26.8478 16.5359  0.00
16.5359 23.2638  0.00
0.00 0.00  0.00

46.8395 28.8618  0.00
28.8618 44.8741  0.00
0.00 0.00  0.00

27.8246 18.7773  0.00
18.7773 26.9939  0.00
0.00 0.00  0.00

50.2818 35.4009  0.00
35.4009 55.4031  0.00
0.00 0.00  0.00

16.9706 10.8401  0.00
10.8401 14.3716  0.00
0.00 0.00  0.00

47.7518 28.4254  0.00
28.4254 42.4625  0.00
0.00 0.00  0.00

19.3973 -0.193961  0.00
-0.193961 14.6153  0.00
0.00 0.00  0.00

25.5991 -2.13987  0.00
-2.13987 20.2101  0.00
0.00 0.00  0.00

41.6179 -0.48724  0.00
-0.48724 29.7825  0.00
0.00 0.00  0.00

3.95877 0.845043  0.00
0.845043 3.93257  0.00
0.00 0.00  0.00

11.401 1.71615  0.00
1.71615 10.2829  0.00
0.00 0.00  0.00

2.56274 0.351846  0.00
0.351846 2.47069  0.00
0.00 0.00  0.00

85.6674 -7.68704  0.00
-7.68704 64.8667  0.00
0.00 0.00  0.00

72.44 24.8122  0.00
24.8122 27.8464  0.00
0.00 0.00  0.00

99.1985 36.3252  0.00
36.3252 20.9769  0.00
0.00 0.00  0.00

144.163 49.7559  0.00
49.7559 56.4645  0.00
0.00 0.00  0.00

14.0927 3.59369  0.00
3.59369 25.8302  0.00
0.00 0.00  0.00


CELL_DATA 4
POINT_DATA 25
SCALARS ue float
LOOKUP_TABLE default
9390.64
6488.35
15152.6
9577.76
21901.3
4018.75
12196.1
563.245
450.696
864.382
486.015
917.554
286.91
800.407
993.471
1070.1
2272.22
158.115
571.625
94.4285
3701.78
9669.54
13397
19225.2
1850.21

