# vtk DataFile Version 2.0
FEM, Created by Wutzow
ASCII
DATASET UNSTRUCTURED_GRID
POINTS 25 Float64
0 0 0
0.940256 -2.5708 0
-7.05817 6.9882 0
6.69257 -4.65313 0
-10.3555 -0.944948 0
23.9159 2.184 0
-29.0853 17.5802 0
0 0.333333 0
8.4396 0.481476 0
20.1494 -13.5401 0
-22.1358 16.154 0
0.977133 -5.30185 0
3.57156 1.19014 0
44.0926 -30.6309 0
0 0.666667 0
-5.2956 0.231238 0
-1.6823 -4.80065 0
16.3109 -10.2085 0
1.68099 -2.41944 0
-0.109904 -9.25682 0
-1.02987 5.36318 0
0 1 0
-7.17637 -8.20856 0
6.63629 8.69526 0
-0.45033 -1.7689 0

CELLS 4 44
10 0 3 12 1 2 6 9 8 4 5
10 3 24 12 10 17 20 16 9 6 13
10 24 21 12 23 22 18 15 16 20 19
10 21 0 12 14 7 4 8 15 18 11

CELL_TYPES 4
69
69
69
69

CELL_DATA 4
POINT_DATA 25
VECTORS Y Float64
0 0 0.0
0.940256 -2.5708 0.0
-7.05817 6.9882 0.0
6.69257 -4.65313 0.0
-10.3555 -0.944948 0.0
23.9159 2.184 0.0
-29.0853 17.5802 0.0
0 0.333333 0.0
8.4396 0.481476 0.0
20.1494 -13.5401 0.0
-22.1358 16.154 0.0
0.977133 -5.30185 0.0
3.57156 1.19014 0.0
44.0926 -30.6309 0.0
0 0.666667 0.0
-5.2956 0.231238 0.0
-1.6823 -4.80065 0.0
16.3109 -10.2085 0.0
1.68099 -2.41944 0.0
-0.109904 -9.25682 0.0
-1.02987 5.36318 0.0
0 1 0.0
-7.17637 -8.20856 0.0
6.63629 8.69526 0.0
-0.45033 -1.7689 0.0

CELL_DATA 4
POINT_DATA 25
VECTORS U Float64
0 0 0.0
0.606923 -2.5708 0.0
-7.72483 6.9882 0.0
5.69257 -4.65313 0.0
-10.5221 -1.11162 0.0
23.4159 2.01733 0.0
-29.9187 17.4135 0.0
0 0 0.0
8.10626 0.148143 0.0
19.4827 -13.8735 0.0
-23.1358 15.8206 0.0
0.810466 -5.80185 0.0
3.07156 0.690142 0.0
43.2592 -31.1309 0.0
0 0 0.0
-5.62893 -0.435428 0.0
-2.34897 -5.46732 0.0
15.3109 -10.8751 0.0
1.51432 -3.25278 0.0
-0.609904 -10.0902 0.0
-1.8632 4.52985 0.0
0 0 0.0
-7.5097 -9.20856 0.0
5.96963 7.69526 0.0
-1.45033 -2.7689 0.0

CELL_DATA 4
POINT_DATA 25
TENSORS E Float64
1.16626 4.28011  0.00
4.28011 17.5035  0.00
0.00 0.00  0.00

1.65864 3.55518  0.00
3.55518 12.6256  0.00
0.00 0.00  0.00

2.49862 6.59957  0.00
6.59957 27.4687  0.00
0.00 0.00  0.00

0.179082 3.95337  0.00
3.95337 17.662  0.00
0.00 0.00  0.00

0.99504 8.11212  0.00
8.11212 38.8211  0.00
0.00 0.00  0.00

0.0714856 2.08224  0.00
2.08224 8.08272  0.00
0.00 0.00  0.00

5.22383 6.85694  0.00
6.85694 22.7787  0.00
0.00 0.00  0.00

2.78678 2.54369  0.00
2.54369 1.80222  0.00
0.00 0.00  0.00

2.77617 2.12367  0.00
2.12367 1.36793  0.00
0.00 0.00  0.00

4.27316 3.74758  0.00
3.74758 2.80507  0.00
0.00 0.00  0.00

1.95157 2.37975  0.00
2.37975 1.75745  0.00
0.00 0.00  0.00

3.1533 4.53887  0.00
4.53887 3.7502  0.00
0.00 0.00  0.00

1.36547 1.36199  0.00
1.36199 0.896564  0.00
0.00 0.00  0.00

5.8119 3.78058  0.00
3.78058 2.45648  0.00
0.00 0.00  0.00

1.11907 0.0232099  0.00
0.0232099 2.6328  0.00
0.00 0.00  0.00

1.38744 0.265892  0.00
0.265892 2.60514  0.00
0.00 0.00  0.00

2.98048 -0.162345  0.00
-0.162345 4.78745  0.00
0.00 0.00  0.00

0.103466 -0.199861  0.00
-0.199861 1.92603  0.00
0.00 0.00  0.00

1.18607 -1.10642  0.00
-1.10642 4.78216  0.00
0.00 0.00  0.00

-0.239465 0.198275  0.00
0.198275 0.819924  0.00
0.00 0.00  0.00

5.96311 0.375157  0.00
0.375157 7.0992  0.00
0.00 0.00  0.00

5.25817 1.88095  0.00
1.88095 4.00069  0.00
0.00 0.00  0.00

7.78433 2.9944  0.00
2.9944 3.32894  0.00
0.00 0.00  0.00

10.9343 4.01237  0.00
4.01237 6.94766  0.00
0.00 0.00  0.00

0.252741 0.0070883  0.00
0.0070883 3.59371  0.00
0.00 0.00  0.00


CELL_DATA 4
POINT_DATA 25
TENSORS S Float64
1.16626 4.28011  0.00
4.28011 17.5035  0.00
0.00 0.00  0.00

1.65864 3.55518  0.00
3.55518 12.6256  0.00
0.00 0.00  0.00

2.49862 6.59957  0.00
6.59957 27.4687  0.00
0.00 0.00  0.00

0.179082 3.95337  0.00
3.95337 17.662  0.00
0.00 0.00  0.00

0.99504 8.11212  0.00
8.11212 38.8211  0.00
0.00 0.00  0.00

0.0714856 2.08224  0.00
2.08224 8.08272  0.00
0.00 0.00  0.00

5.22383 6.85694  0.00
6.85694 22.7787  0.00
0.00 0.00  0.00

2.78678 2.54369  0.00
2.54369 1.80222  0.00
0.00 0.00  0.00

2.77617 2.12367  0.00
2.12367 1.36793  0.00
0.00 0.00  0.00

4.27316 3.74758  0.00
3.74758 2.80507  0.00
0.00 0.00  0.00

1.95157 2.37975  0.00
2.37975 1.75745  0.00
0.00 0.00  0.00

3.1533 4.53887  0.00
4.53887 3.7502  0.00
0.00 0.00  0.00

1.36547 1.36199  0.00
1.36199 0.896564  0.00
0.00 0.00  0.00

5.8119 3.78058  0.00
3.78058 2.45648  0.00
0.00 0.00  0.00

1.11907 0.0232099  0.00
0.0232099 2.6328  0.00
0.00 0.00  0.00

1.38744 0.265892  0.00
0.265892 2.60514  0.00
0.00 0.00  0.00

2.98048 -0.162345  0.00
-0.162345 4.78745  0.00
0.00 0.00  0.00

0.103466 -0.199861  0.00
-0.199861 1.92603  0.00
0.00 0.00  0.00

1.18607 -1.10642  0.00
-1.10642 4.78216  0.00
0.00 0.00  0.00

-0.239465 0.198275  0.00
0.198275 0.819924  0.00
0.00 0.00  0.00

5.96311 0.375157  0.00
0.375157 7.0992  0.00
0.00 0.00  0.00

5.25817 1.88095  0.00
1.88095 4.00069  0.00
0.00 0.00  0.00

7.78433 2.9944  0.00
2.9944 3.32894  0.00
0.00 0.00  0.00

10.9343 4.01237  0.00
4.01237 6.94766  0.00
0.00 0.00  0.00

0.252741 0.0070883  0.00
0.0070883 3.59371  0.00
0.00 0.00  0.00


CELL_DATA 4
POINT_DATA 25
SCALARS ue float
LOOKUP_TABLE default
67.3256
46.4407
108.71
68.7356
157.318
28.7736
87.4164
5.29909
4.7133
8.33884
4.17016
7.80506
2.53971
9.57915
9.50053
8.40115
20.8394
4.15992
12.7257
1.24378
28.2215
74.0291
102.432
146.468
14.5504

