# vtk DataFile Version 2.0
FEM, Created by Wutzow
ASCII
DATASET UNSTRUCTURED_GRID
POINTS 25 Float64
0 0 0
2.67817 -0.0927559 0
-3.92686 5.1523 0
1.51209 -5.73936 0
4.876 -3.12218 0
-11.9874 -1.74964 0
-5.3969 23.0787 0
0 0.333333 0
-2.63488 1.883 0
7.55257 -19.5021 0
-3.94197 19.901 0
-1.51014 -2.93255 0
-3.38215 3.00513 0
6.60963 -34.4178 0
0 0.666667 0
4.67075 -2.33172 0
5.15647 -4.3989 0
3.48621 -14.1766 0
-1.11761 -0.723395 0
-3.24205 2.30401 0
-1.16319 2.10329 0
0 1 0
-0.165636 -0.751527 0
0.786323 0.630009 0
0.222588 0.17466 0

CELLS 4 44
10 0 3 12 1 2 6 9 8 4 5
10 3 24 12 10 17 20 16 9 6 13
10 24 21 12 23 22 18 15 16 20 19
10 21 0 12 14 7 4 8 15 18 11

CELL_TYPES 4
69
69
69
69

CELL_DATA 4
POINT_DATA 25
VECTORS Y Float64
0 0 0.0
2.67817 -0.0927559 0.0
-3.92686 5.1523 0.0
1.51209 -5.73936 0.0
4.876 -3.12218 0.0
-11.9874 -1.74964 0.0
-5.3969 23.0787 0.0
0 0.333333 0.0
-2.63488 1.883 0.0
7.55257 -19.5021 0.0
-3.94197 19.901 0.0
-1.51014 -2.93255 0.0
-3.38215 3.00513 0.0
6.60963 -34.4178 0.0
0 0.666667 0.0
4.67075 -2.33172 0.0
5.15647 -4.3989 0.0
3.48621 -14.1766 0.0
-1.11761 -0.723395 0.0
-3.24205 2.30401 0.0
-1.16319 2.10329 0.0
0 1 0.0
-0.165636 -0.751527 0.0
0.786323 0.630009 0.0
0.222588 0.17466 0.0

CELL_DATA 4
POINT_DATA 25
VECTORS U Float64
0 0 0.0
2.34484 -0.0927559 0.0
-4.59352 5.1523 0.0
0.512088 -5.73936 0.0
4.70933 -3.28885 0.0
-12.4874 -1.91631 0.0
-6.23023 22.912 0.0
0 0 0.0
-2.96821 1.54967 0.0
6.88591 -19.8355 0.0
-4.94197 19.5676 0.0
-1.6768 -3.43255 0.0
-3.88215 2.50513 0.0
5.77629 -34.9178 0.0
0 0 0.0
4.33742 -2.99839 0.0
4.4898 -5.06557 0.0
2.48621 -14.8433 0.0
-1.28427 -1.55673 0.0
-3.74205 1.47068 0.0
-1.99653 1.26996 0.0
0 0 0.0
-0.498969 -1.75153 0.0
0.119657 -0.369991 0.0
-0.777412 -0.82534 0.0

CELL_DATA 4
POINT_DATA 25
TENSORS E Float64
59.3522 41.0951  0.00
41.0951 37.1327  0.00
0.00 0.00  0.00

59.5549 36.677  0.00
36.677 33.8726  0.00
0.00 0.00  0.00

125.116 86.6997  0.00
86.6997 77.9635  0.00
0.00 0.00  0.00

16.7033 15.3156  0.00
15.3156 15.4121  0.00
0.00 0.00  0.00

46.9596 40.7763  0.00
40.7763 40.2213  0.00
0.00 0.00  0.00

9.61199 7.69474  0.00
7.69474 7.31208  0.00
0.00 0.00  0.00

180.506 111.887  0.00
111.887 105.626  0.00
0.00 0.00  0.00

463.133 367.524  0.00
367.524 346.539  0.00
0.00 0.00  0.00

420.779 341.593  0.00
341.593 293.731  0.00
0.00 0.00  0.00

994.458 813.257  0.00
813.257 793.191  0.00
0.00 0.00  0.00

292.806 176.444  0.00
176.444 122.545  0.00
0.00 0.00  0.00

920.911 572.356  0.00
572.356 419.256  0.00
0.00 0.00  0.00

60.7788 41.7429  0.00
41.7429 32.9362  0.00
0.00 0.00  0.00

1433.59 1181.51  0.00
1181.51 1027.1  0.00
0.00 0.00  0.00

1157.97 1633  0.00
1633 2585  0.00
0.00 0.00  0.00

1573.03 2246.52  0.00
2246.52 3561.77  0.00
0.00 0.00  0.00

2391.17 3316.43  0.00
3316.43 5195.3  0.00
0.00 0.00  0.00

271.495 377.714  0.00
377.714 572.487  0.00
0.00 0.00  0.00

756.791 1049.53  0.00
1049.53 1594.96  0.00
0.00 0.00  0.00

171.501 247.105  0.00
247.105 394.266  0.00
0.00 0.00  0.00

5047.07 7047.15  0.00
7047.15 10960.2  0.00
0.00 0.00  0.00

2117.09 1320.03  0.00
1320.03 964.643  0.00
0.00 0.00  0.00

2524.14 1478.92  0.00
1478.92 993.725  0.00
0.00 0.00  0.00

4212.86 2568.01  0.00
2568.01 1815.56  0.00
0.00 0.00  0.00

647.218 561.42  0.00
561.42 550.38  0.00
0.00 0.00  0.00


CELL_DATA 4
POINT_DATA 25
TENSORS S Float64
59.3522 41.0951  0.00
41.0951 37.1327  0.00
0.00 0.00  0.00

59.5549 36.677  0.00
36.677 33.8726  0.00
0.00 0.00  0.00

125.116 86.6997  0.00
86.6997 77.9635  0.00
0.00 0.00  0.00

16.7033 15.3156  0.00
15.3156 15.4121  0.00
0.00 0.00  0.00

46.9596 40.7763  0.00
40.7763 40.2213  0.00
0.00 0.00  0.00

9.61199 7.69474  0.00
7.69474 7.31208  0.00
0.00 0.00  0.00

180.506 111.887  0.00
111.887 105.626  0.00
0.00 0.00  0.00

463.133 367.524  0.00
367.524 346.539  0.00
0.00 0.00  0.00

420.779 341.593  0.00
341.593 293.731  0.00
0.00 0.00  0.00

994.458 813.257  0.00
813.257 793.191  0.00
0.00 0.00  0.00

292.806 176.444  0.00
176.444 122.545  0.00
0.00 0.00  0.00

920.911 572.356  0.00
572.356 419.256  0.00
0.00 0.00  0.00

60.7788 41.7429  0.00
41.7429 32.9362  0.00
0.00 0.00  0.00

1433.59 1181.51  0.00
1181.51 1027.1  0.00
0.00 0.00  0.00

1157.97 1633  0.00
1633 2585  0.00
0.00 0.00  0.00

1573.03 2246.52  0.00
2246.52 3561.77  0.00
0.00 0.00  0.00

2391.17 3316.43  0.00
3316.43 5195.3  0.00
0.00 0.00  0.00

271.495 377.714  0.00
377.714 572.487  0.00
0.00 0.00  0.00

756.791 1049.53  0.00
1049.53 1594.96  0.00
0.00 0.00  0.00

171.501 247.105  0.00
247.105 394.266  0.00
0.00 0.00  0.00

5047.07 7047.15  0.00
7047.15 10960.2  0.00
0.00 0.00  0.00

2117.09 1320.03  0.00
1320.03 964.643  0.00
0.00 0.00  0.00

2524.14 1478.92  0.00
1478.92 993.725  0.00
0.00 0.00  0.00

4212.86 2568.01  0.00
2568.01 1815.56  0.00
0.00 0.00  0.00

647.218 561.42  0.00
561.42 550.38  0.00
0.00 0.00  0.00


CELL_DATA 4
POINT_DATA 25
SCALARS ue float
LOOKUP_TABLE default
36733
12446.4
91767.2
6670.04
25896.3
2077.82
48368.9
1.12889e+06
870332
2.67163e+06
260091
953813
90102
3.10255e+06
1.27874e+07
1.864e+07
2.59518e+07
1.64533e+06
4.40753e+06
1.85131e+06
5.79543e+07
8.08382e+06
1.06304e+07
1.62561e+07
1.37779e+06

