# vtk DataFile Version 2.0
FEM, Created by Wutzow
ASCII
DATASET UNSTRUCTURED_GRID
POINTS 25 Float64
0 0 0
2.30312 3.79033 0
-11.9585 -6.72406 0
10.6125 2.54894 0
4.45007 0.829354 0
-0.319115 -6.23876 0
-46.8942 -10.6082 0
0 0.333333 0
-1.881 -0.673477 0
43.2664 9.11865 0
-37.5866 -8.59505 0
-0.728081 -5.72655 0
-5.09578 -0.395017 0
59.3515 13.3742 0
0 0.666667 0
6.83894 2.31861 0
-6.75858 -2.40903 0
31.9642 6.8838 0
-1.95174 -2.98428 0
-29.4208 -3.78938 0
15.5628 3.37752 0
0 1 0
-8.50994 -0.872542 0
13.2228 1.02467 0
-4.32655 -0.701917 0

CELLS 4 44
10 0 3 12 1 2 6 9 8 4 5
10 3 24 12 10 17 20 16 9 6 13
10 24 21 12 23 22 18 15 16 20 19
10 21 0 12 14 7 4 8 15 18 11

CELL_TYPES 4
69
69
69
69

CELL_DATA 4
POINT_DATA 25
VECTORS Y Float64
0 0 0.0
2.30312 3.79033 0.0
-11.9585 -6.72406 0.0
10.6125 2.54894 0.0
4.45007 0.829354 0.0
-0.319115 -6.23876 0.0
-46.8942 -10.6082 0.0
0 0.333333 0.0
-1.881 -0.673477 0.0
43.2664 9.11865 0.0
-37.5866 -8.59505 0.0
-0.728081 -5.72655 0.0
-5.09578 -0.395017 0.0
59.3515 13.3742 0.0
0 0.666667 0.0
6.83894 2.31861 0.0
-6.75858 -2.40903 0.0
31.9642 6.8838 0.0
-1.95174 -2.98428 0.0
-29.4208 -3.78938 0.0
15.5628 3.37752 0.0
0 1 0.0
-8.50994 -0.872542 0.0
13.2228 1.02467 0.0
-4.32655 -0.701917 0.0

CELL_DATA 4
POINT_DATA 25
VECTORS U Float64
0 0 0.0
1.96978 3.79033 0.0
-12.6251 -6.72406 0.0
9.61251 2.54894 0.0
4.2834 0.662687 0.0
-0.819115 -6.40543 0.0
-47.7276 -10.7749 0.0
0 0 0.0
-2.21434 -1.00681 0.0
42.5998 8.78531 0.0
-38.5866 -8.92839 0.0
-0.894747 -6.22655 0.0
-5.59578 -0.895017 0.0
58.5181 12.8742 0.0
0 0 0.0
6.50561 1.65195 0.0
-7.42525 -3.07569 0.0
30.9642 6.21714 0.0
-2.11841 -3.81762 0.0
-29.9208 -4.62271 0.0
14.7295 2.54419 0.0
0 0 0.0
-8.84327 -1.87254 0.0
12.5561 0.0246698 0.0
-5.32655 -1.70192 0.0

CELL_DATA 4
POINT_DATA 25
TENSORS E Float64
-0.0357785 0.239768  0.00
0.239768 -0.461155  0.00
0.00 0.00  0.00

0.00540539 0.349769  0.00
0.349769 -0.383449  0.00
0.00 0.00  0.00

0.169131 0.631112  0.00
0.631112 -0.607082  0.00
0.00 0.00  0.00

-0.0380393 0.0837132  0.00
0.0837132 -0.405237  0.00
0.00 0.00  0.00

0.406952 0.435109  0.00
0.435109 -0.727778  0.00
0.00 0.00  0.00

-0.140504 -0.0427061  0.00
-0.0427061 -0.287377  0.00
0.00 0.00  0.00

0.515635 1.55623  0.00
1.55623 -0.362256  0.00
0.00 0.00  0.00

1.67311 0.615359  0.00
0.615359 -0.796475  0.00
0.00 0.00  0.00

1.96628 0.565049  0.00
0.565049 -0.532233  0.00
0.00 0.00  0.00

2.64222 1.05863  0.00
1.05863 -0.961415  0.00
0.00 0.00  0.00

0.92922 0.542901  0.00
0.542901 -0.878824  0.00
0.00 0.00  0.00

1.26393 1.20635  0.00
1.20635 -1.50062  0.00
0.00 0.00  0.00

0.76413 0.256406  0.00
0.256406 -0.535036  0.00
0.00 0.00  0.00

4.69767 1.5005  0.00
1.5005 -0.237937  0.00
0.00 0.00  0.00

-0.337975 0.0818834  0.00
0.0818834 1.6781  0.00
0.00 0.00  0.00

-0.516846 0.551207  0.00
0.551207 1.17809  0.00
0.00 0.00  0.00

-0.0750395 0.0354994  0.00
0.0354994 2.88757  0.00
0.00 0.00  0.00

-0.190858 -0.292887  0.00
-0.292887 1.76841  0.00
0.00 0.00  0.00

0.445431 -1.25054  0.00
-1.25054 4.48861  0.00
0.00 0.00  0.00

-0.480248 0.144355  0.00
0.144355 0.634143  0.00
0.00 0.00  0.00

-0.184877 1.58082  0.00
1.58082 2.64582  0.00
0.00 0.00  0.00

-0.866297 -0.182508  0.00
-0.182508 1.99897  0.00
0.00 0.00  0.00

-0.635269 0.00707023  0.00
0.00707023 1.98946  0.00
0.00 0.00  0.00

-1.12275 -0.0561484  0.00
-0.0561484 2.80308  0.00
0.00 0.00  0.00

-0.876722 -0.302578  0.00
-0.302578 1.58863  0.00
0.00 0.00  0.00


CELL_DATA 4
POINT_DATA 25
TENSORS S Float64
-0.0357785 0.239768  0.00
0.239768 -0.461155  0.00
0.00 0.00  0.00

0.00540539 0.349769  0.00
0.349769 -0.383449  0.00
0.00 0.00  0.00

0.169131 0.631112  0.00
0.631112 -0.607082  0.00
0.00 0.00  0.00

-0.0380393 0.0837132  0.00
0.0837132 -0.405237  0.00
0.00 0.00  0.00

0.406952 0.435109  0.00
0.435109 -0.727778  0.00
0.00 0.00  0.00

-0.140504 -0.0427061  0.00
-0.0427061 -0.287377  0.00
0.00 0.00  0.00

0.515635 1.55623  0.00
1.55623 -0.362256  0.00
0.00 0.00  0.00

1.67311 0.615359  0.00
0.615359 -0.796475  0.00
0.00 0.00  0.00

1.96628 0.565049  0.00
0.565049 -0.532233  0.00
0.00 0.00  0.00

2.64222 1.05863  0.00
1.05863 -0.961415  0.00
0.00 0.00  0.00

0.92922 0.542901  0.00
0.542901 -0.878824  0.00
0.00 0.00  0.00

1.26393 1.20635  0.00
1.20635 -1.50062  0.00
0.00 0.00  0.00

0.76413 0.256406  0.00
0.256406 -0.535036  0.00
0.00 0.00  0.00

4.69767 1.5005  0.00
1.5005 -0.237937  0.00
0.00 0.00  0.00

-0.337975 0.0818834  0.00
0.0818834 1.6781  0.00
0.00 0.00  0.00

-0.516846 0.551207  0.00
0.551207 1.17809  0.00
0.00 0.00  0.00

-0.0750395 0.0354994  0.00
0.0354994 2.88757  0.00
0.00 0.00  0.00

-0.190858 -0.292887  0.00
-0.292887 1.76841  0.00
0.00 0.00  0.00

0.445431 -1.25054  0.00
-1.25054 4.48861  0.00
0.00 0.00  0.00

-0.480248 0.144355  0.00
0.144355 0.634143  0.00
0.00 0.00  0.00

-0.184877 1.58082  0.00
1.58082 2.64582  0.00
0.00 0.00  0.00

-0.866297 -0.182508  0.00
-0.182508 1.99897  0.00
0.00 0.00  0.00

-0.635269 0.00707023  0.00
0.00707023 1.98946  0.00
0.00 0.00  0.00

-1.12275 -0.0561484  0.00
-0.0561484 2.80308  0.00
0.00 0.00  0.00

-0.876722 -0.302578  0.00
-0.302578 1.58863  0.00
0.00 0.00  0.00


CELL_DATA 4
POINT_DATA 25
SCALARS ue float
LOOKUP_TABLE default
0.831273
1.10957
1.79028
0.416599
1.2295
0.127855
4.05708
1.60389
2.05713
3.01094
0.747894
1.54947
0.474635
6.26
2.70994
1.57861
5.28103
3.00888
8.5791
0.589412
4.89058
1.78632
2.07103
2.97853
1.19261

