# vtk DataFile Version 2.0
FEM, Created by Wutzow
ASCII
DATASET UNSTRUCTURED_GRID
POINTS 25 Float64
0 0 0
0.291537 -3.56346 0
-5.90955 8.51657 0
6.2291 -5.14102 0
-15.2675 -0.153212 0
32.8114 3.51385 0
-27.3093 19.8863 0
0 0.333333 0
11.5233 -0.360157 0
16.7653 -14.667 0
-20.9562 17.7242 0
1.77345 -5.28795 0
6.78036 0.81937 0
40.6644 -35.1129 0
0 0.666667 0
-9.75248 0.804944 0
-8.17166 -2.85658 0
17.0798 -11.528 0
3.0039 -2.60876 0
-7.1778 -7.64869 0
3.96854 3.55199 0
0 1 0
-14.2299 -8.30803 0
14.6246 8.45294 0
-2.01702 -1.48355 0

CELLS 4 44
10 0 3 12 1 2 6 9 8 4 5
10 3 24 12 10 17 20 16 9 6 13
10 24 21 12 23 22 18 15 16 20 19
10 21 0 12 14 7 4 8 15 18 11

CELL_TYPES 4
69
69
69
69

CELL_DATA 4
POINT_DATA 25
VECTORS Y Float64
0 0 0.0
0.291537 -3.56346 0.0
-5.90955 8.51657 0.0
6.2291 -5.14102 0.0
-15.2675 -0.153212 0.0
32.8114 3.51385 0.0
-27.3093 19.8863 0.0
0 0.333333 0.0
11.5233 -0.360157 0.0
16.7653 -14.667 0.0
-20.9562 17.7242 0.0
1.77345 -5.28795 0.0
6.78036 0.81937 0.0
40.6644 -35.1129 0.0
0 0.666667 0.0
-9.75248 0.804944 0.0
-8.17166 -2.85658 0.0
17.0798 -11.528 0.0
3.0039 -2.60876 0.0
-7.1778 -7.64869 0.0
3.96854 3.55199 0.0
0 1 0.0
-14.2299 -8.30803 0.0
14.6246 8.45294 0.0
-2.01702 -1.48355 0.0

CELL_DATA 4
POINT_DATA 25
VECTORS U Float64
0 0 0.0
-0.0417959 -3.56346 0.0
-6.57622 8.51657 0.0
5.2291 -5.14102 0.0
-15.4341 -0.319879 0.0
32.3114 3.34719 0.0
-28.1426 19.7196 0.0
0 0 0.0
11.1899 -0.69349 0.0
16.0986 -15.0003 0.0
-21.9562 17.3909 0.0
1.60678 -5.78795 0.0
6.28036 0.31937 0.0
39.8311 -35.6129 0.0
0 0 0.0
-10.0858 0.138277 0.0
-8.83833 -3.52325 0.0
16.0798 -12.1947 0.0
2.83723 -3.4421 0.0
-7.6778 -8.48202 0.0
3.1352 2.71866 0.0
0 0 0.0
-14.5632 -9.30803 0.0
13.958 7.45294 0.0
-3.01702 -2.48355 0.0

CELL_DATA 4
POINT_DATA 25
TENSORS E Float64
4.46262 9.45012  0.00
9.45012 40.8857  0.00
0.00 0.00  0.00

5.22348 7.6276  0.00
7.6276 29.8021  0.00
0.00 0.00  0.00

8.60755 14.6403  0.00
14.6403 64.188  0.00
0.00 0.00  0.00

2.09238 8.86495  0.00
8.86495 40.9514  0.00
0.00 0.00  0.00

5.979 18.4312  0.00
18.4312 89.782  0.00
0.00 0.00  0.00

0.946856 4.53354  0.00
4.53354 18.8844  0.00
0.00 0.00  0.00

14.9043 14.5713  0.00
14.5713 54.2089  0.00
0.00 0.00  0.00

6.34678 5.0677  0.00
5.0677 5.40497  0.00
0.00 0.00  0.00

5.87595 4.37596  0.00
4.37596 4.34627  0.00
0.00 0.00  0.00

9.64358 7.49143  0.00
7.49143 8.3676  0.00
0.00 0.00  0.00

4.97191 4.57902  0.00
4.57902 5.00081  0.00
0.00 0.00  0.00

8.68553 8.60561  0.00
8.60561 10.2916  0.00
0.00 0.00  0.00

3.19989 2.68362  0.00
2.68362 2.66958  0.00
0.00 0.00  0.00

11.6549 8.01757  0.00
8.01757 8.08251  0.00
0.00 0.00  0.00

3.35479 0.0470157  0.00
0.0470157 4.12834  0.00
0.00 0.00  0.00

4.36797 0.0624322  0.00
0.0624322 4.80903  0.00
0.00 0.00  0.00

7.69139 -0.109047  0.00
-0.109047 7.89824  0.00
0.00 0.00  0.00

0.574007 -0.0630479  0.00
-0.0630479 2.1868  0.00
0.00 0.00  0.00

2.39842 -0.768183  0.00
-0.768183 5.47032  0.00
0.00 0.00  0.00

0.115103 0.234459  0.00
0.234459 1.03485  0.00
0.00 0.00  0.00

15.7607 -0.317254  0.00
-0.317254 14.3395  0.00
0.00 0.00  0.00

13.4173 4.68464  0.00
4.68464 6.92363  0.00
0.00 0.00  0.00

18.85 7.08446  0.00
7.08446 5.5297  0.00
0.00 0.00  0.00

27.1146 9.59624  0.00
9.59624 13.0059  0.00
0.00 0.00  0.00

1.99609 0.452746  0.00
0.452746 6.30284  0.00
0.00 0.00  0.00


CELL_DATA 4
POINT_DATA 25
TENSORS S Float64
4.46262 9.45012  0.00
9.45012 40.8857  0.00
0.00 0.00  0.00

5.22348 7.6276  0.00
7.6276 29.8021  0.00
0.00 0.00  0.00

8.60755 14.6403  0.00
14.6403 64.188  0.00
0.00 0.00  0.00

2.09238 8.86495  0.00
8.86495 40.9514  0.00
0.00 0.00  0.00

5.979 18.4312  0.00
18.4312 89.782  0.00
0.00 0.00  0.00

0.946856 4.53354  0.00
4.53354 18.8844  0.00
0.00 0.00  0.00

14.9043 14.5713  0.00
14.5713 54.2089  0.00
0.00 0.00  0.00

6.34678 5.0677  0.00
5.0677 5.40497  0.00
0.00 0.00  0.00

5.87595 4.37596  0.00
4.37596 4.34627  0.00
0.00 0.00  0.00

9.64358 7.49143  0.00
7.49143 8.3676  0.00
0.00 0.00  0.00

4.97191 4.57902  0.00
4.57902 5.00081  0.00
0.00 0.00  0.00

8.68553 8.60561  0.00
8.60561 10.2916  0.00
0.00 0.00  0.00

3.19989 2.68362  0.00
2.68362 2.66958  0.00
0.00 0.00  0.00

11.6549 8.01757  0.00
8.01757 8.08251  0.00
0.00 0.00  0.00

3.35479 0.0470157  0.00
0.0470157 4.12834  0.00
0.00 0.00  0.00

4.36797 0.0624322  0.00
0.0624322 4.80903  0.00
0.00 0.00  0.00

7.69139 -0.109047  0.00
-0.109047 7.89824  0.00
0.00 0.00  0.00

0.574007 -0.0630479  0.00
-0.0630479 2.1868  0.00
0.00 0.00  0.00

2.39842 -0.768183  0.00
-0.768183 5.47032  0.00
0.00 0.00  0.00

0.115103 0.234459  0.00
0.234459 1.03485  0.00
0.00 0.00  0.00

15.7607 -0.317254  0.00
-0.317254 14.3395  0.00
0.00 0.00  0.00

13.4173 4.68464  0.00
4.68464 6.92363  0.00
0.00 0.00  0.00

18.85 7.08446  0.00
7.08446 5.5297  0.00
0.00 0.00  0.00

27.1146 9.59624  0.00
9.59624 13.0059  0.00
0.00 0.00  0.00

1.99609 0.452746  0.00
0.452746 6.30284  0.00
0.00 0.00  0.00


CELL_DATA 4
POINT_DATA 25
SCALARS ue float
LOOKUP_TABLE default
357.812
248.703
576.189
363.801
828.665
153.971
466.94
24.5481
20.6984
37.8558
20.3961
37.8935
12.3373
38.9938
40.0973
41.3833
90.9577
8.91167
30.0462
4.1164
142.634
375.189
520.055
745.302
71.9096

