# vtk DataFile Version 2.0
FEM, Created by Wutzow
ASCII
DATASET UNSTRUCTURED_GRID
POINTS 25 Float64
0 0 0
1.55505 1.91015 0
-10.174 -9.3053 0
9.58197 8.08014 0
5.98814 1.292 0
-2.49902 3.96565 0
-43.396 -32.0373 0
0 0.333333 0
-2.93786 -1.50363 0
41.802 25.0452 0
-33.7616 -27.8377 0
-0.986733 -5.62934 0
-5.99518 -0.601995 0
53.6137 47.9335 0
0 0.666667 0
8.08872 2.61528 0
-2.35148 0.0742183 0
27.8672 20.8656 0
-2.31896 -3.06792 0
-21.8914 -2.85443 0
10.7266 1.0857 0
0 1 0
-3.97667 -2.12711 0
7.5424 1.98252 0
-2.95126 -0.520012 0

CELLS 4 44
10 0 3 12 1 2 6 9 8 4 5
10 3 24 12 10 17 20 16 9 6 13
10 24 21 12 23 22 18 15 16 20 19
10 21 0 12 14 7 4 8 15 18 11

CELL_TYPES 4
69
69
69
69

CELL_DATA 4
POINT_DATA 25
VECTORS Y Float64
0 0 0.0
1.55505 1.91015 0.0
-10.174 -9.3053 0.0
9.58197 8.08014 0.0
5.98814 1.292 0.0
-2.49902 3.96565 0.0
-43.396 -32.0373 0.0
0 0.333333 0.0
-2.93786 -1.50363 0.0
41.802 25.0452 0.0
-33.7616 -27.8377 0.0
-0.986733 -5.62934 0.0
-5.99518 -0.601995 0.0
53.6137 47.9335 0.0
0 0.666667 0.0
8.08872 2.61528 0.0
-2.35148 0.0742183 0.0
27.8672 20.8656 0.0
-2.31896 -3.06792 0.0
-21.8914 -2.85443 0.0
10.7266 1.0857 0.0
0 1 0.0
-3.97667 -2.12711 0.0
7.5424 1.98252 0.0
-2.95126 -0.520012 0.0

CELL_DATA 4
POINT_DATA 25
VECTORS U Float64
0 0 0.0
1.22172 1.91015 0.0
-10.8407 -9.3053 0.0
8.58197 8.08014 0.0
5.82148 1.12533 0.0
-2.99902 3.79898 0.0
-44.2293 -32.204 0.0
0 0 0.0
-3.2712 -1.83696 0.0
41.1354 24.7118 0.0
-34.7616 -28.171 0.0
-1.1534 -6.12934 0.0
-6.49518 -1.10199 0.0
52.7804 47.4335 0.0
0 0 0.0
7.75538 1.94862 0.0
-3.01814 -0.592448 0.0
26.8672 20.1989 0.0
-2.48563 -3.90126 0.0
-22.3914 -3.68776 0.0
9.89327 0.252366 0.0
0 0 0.0
-4.31 -3.12711 0.0
6.87573 0.982515 0.0
-3.95126 -1.52001 0.0

CELL_DATA 4
POINT_DATA 25
TENSORS E Float64
0.413962 0.295947  0.00
0.295947 -0.0398652  0.00
0.00 0.00  0.00

0.475045 0.516955  0.00
0.516955 0.0993006  0.00
0.00 0.00  0.00

0.806302 0.678582  0.00
0.678582 0.0345992  0.00
0.00 0.00  0.00

0.29383 0.0438877  0.00
0.0438877 -0.121763  0.00
0.00 0.00  0.00

0.865613 0.162503  0.00
0.162503 -0.276756  0.00
0.00 0.00  0.00

0.116085 0.0158679  0.00
0.0158679 -0.0671651  0.00
0.00 0.00  0.00

1.44027 1.97273  0.00
1.97273 0.724953  0.00
0.00 0.00  0.00

1.2408 0.464908  0.00
0.464908 -0.534277  0.00
0.00 0.00  0.00

1.46877 0.349112  0.00
0.349112 -0.385395  0.00
0.00 0.00  0.00

2.16676 0.920877  0.00
0.920877 -0.368626  0.00
0.00 0.00  0.00

0.584719 0.413779  0.00
0.413779 -0.736765  0.00
0.00 0.00  0.00

1.00182 1.11606  0.00
1.11606 -1.02259  0.00
0.00 0.00  0.00

0.42996 0.137562  0.00
0.137562 -0.505713  0.00
0.00 0.00  0.00

3.90917 1.11005  0.00
1.11005 0.259566  0.00
0.00 0.00  0.00

-0.210911 0.409073  0.00
0.409073 2.11407  0.00
0.00 0.00  0.00

-0.370807 0.86995  0.00
0.86995 1.65342  0.00
0.00 0.00  0.00

0.108578 0.496501  0.00
0.496501 3.53144  0.00
0.00 0.00  0.00

-0.109198 -0.0283067  0.00
-0.0283067 2.06804  0.00
0.00 0.00  0.00

0.53964 -0.846283  0.00
-0.846283 4.91377  0.00
0.00 0.00  0.00

-0.408307 0.333867  0.00
0.333867 0.868745  0.00
0.00 0.00  0.00

0.130623 2.17384  0.00
2.17384 3.66239  0.00
0.00 0.00  0.00

-0.784336 -0.11838  0.00
-0.11838 2.24339  0.00
0.00 0.00  0.00

-0.583444 0.106708  0.00
0.106708 2.25667  0.00
0.00 0.00  0.00

-0.92081 0.0593544  0.00
0.0593544 3.2464  0.00
0.00 0.00  0.00

-0.806514 -0.28298  0.00
-0.28298 1.72921  0.00
0.00 0.00  0.00


CELL_DATA 4
POINT_DATA 25
TENSORS S Float64
0.413962 0.295947  0.00
0.295947 -0.0398652  0.00
0.00 0.00  0.00

0.475045 0.516955  0.00
0.516955 0.0993006  0.00
0.00 0.00  0.00

0.806302 0.678582  0.00
0.678582 0.0345992  0.00
0.00 0.00  0.00

0.29383 0.0438877  0.00
0.0438877 -0.121763  0.00
0.00 0.00  0.00

0.865613 0.162503  0.00
0.162503 -0.276756  0.00
0.00 0.00  0.00

0.116085 0.0158679  0.00
0.0158679 -0.0671651  0.00
0.00 0.00  0.00

1.44027 1.97273  0.00
1.97273 0.724953  0.00
0.00 0.00  0.00

1.2408 0.464908  0.00
0.464908 -0.534277  0.00
0.00 0.00  0.00

1.46877 0.349112  0.00
0.349112 -0.385395  0.00
0.00 0.00  0.00

2.16676 0.920877  0.00
0.920877 -0.368626  0.00
0.00 0.00  0.00

0.584719 0.413779  0.00
0.413779 -0.736765  0.00
0.00 0.00  0.00

1.00182 1.11606  0.00
1.11606 -1.02259  0.00
0.00 0.00  0.00

0.42996 0.137562  0.00
0.137562 -0.505713  0.00
0.00 0.00  0.00

3.90917 1.11005  0.00
1.11005 0.259566  0.00
0.00 0.00  0.00

-0.210911 0.409073  0.00
0.409073 2.11407  0.00
0.00 0.00  0.00

-0.370807 0.86995  0.00
0.86995 1.65342  0.00
0.00 0.00  0.00

0.108578 0.496501  0.00
0.496501 3.53144  0.00
0.00 0.00  0.00

-0.109198 -0.0283067  0.00
-0.0283067 2.06804  0.00
0.00 0.00  0.00

0.53964 -0.846283  0.00
-0.846283 4.91377  0.00
0.00 0.00  0.00

-0.408307 0.333867  0.00
0.333867 0.868745  0.00
0.00 0.00  0.00

0.130623 2.17384  0.00
2.17384 3.66239  0.00
0.00 0.00  0.00

-0.784336 -0.11838  0.00
-0.11838 2.24339  0.00
0.00 0.00  0.00

-0.583444 0.106708  0.00
0.106708 2.25667  0.00
0.00 0.00  0.00

-0.92081 0.0593544  0.00
0.0593544 3.2464  0.00
0.00 0.00  0.00

-0.806514 -0.28298  0.00
-0.28298 1.72921  0.00
0.00 0.00  0.00


CELL_DATA 4
POINT_DATA 25
SCALARS ue float
LOOKUP_TABLE default
0.814224
1.25667
1.84551
0.265721
0.870987
0.082992
4.79068
2.31573
2.36321
5.02488
0.6791
1.90556
0.360441
7.91588
3.08992
2.06812
5.8868
3.22388
8.84777
0.774403
6.18089
2.033
2.39955
3.44443
1.30284

