# vtk DataFile Version 2.0
FEM, Created by Wutzow
ASCII
DATASET UNSTRUCTURED_GRID
POINTS 25 Float64
0 0 0
-0.481437 -2.34199 0
-9.22508 7.11479 0
11.237 -4.96026 0
-3.16039 -7.88428 0
19.5317 11.9636 0
-44.362 15.97 0
0 0.333333 0
2.5268 3.96505 0
33.7237 -14.7958 0
-39.8996 17.2697 0
1.15413 -3.60585 0
0.380456 6.6836 0
67.9106 -30.2229 0
0 0.666667 0
-0.591459 -7.30609 0
-4.20015 -16.6426 0
31.236 -9.1496 0
0.14389 -0.231734 0
-9.48671 -17.334 0
5.58022 13.8981 0
0 1 0
-4.77977 -14.2857 0
6.45445 16.3584 0
-1.73882 -3.77191 0

CELLS 4 44
10 0 3 12 1 2 6 9 8 4 5
10 3 24 12 10 17 20 16 9 6 13
10 24 21 12 23 22 18 15 16 20 19
10 21 0 12 14 7 4 8 15 18 11

CELL_TYPES 4
69
69
69
69

CELL_DATA 4
POINT_DATA 25
VECTORS Y Float64
0 0 0.0
-0.481437 -2.34199 0.0
-9.22508 7.11479 0.0
11.237 -4.96026 0.0
-3.16039 -7.88428 0.0
19.5317 11.9636 0.0
-44.362 15.97 0.0
0 0.333333 0.0
2.5268 3.96505 0.0
33.7237 -14.7958 0.0
-39.8996 17.2697 0.0
1.15413 -3.60585 0.0
0.380456 6.6836 0.0
67.9106 -30.2229 0.0
0 0.666667 0.0
-0.591459 -7.30609 0.0
-4.20015 -16.6426 0.0
31.236 -9.1496 0.0
0.14389 -0.231734 0.0
-9.48671 -17.334 0.0
5.58022 13.8981 0.0
0 1 0.0
-4.77977 -14.2857 0.0
6.45445 16.3584 0.0
-1.73882 -3.77191 0.0

CELL_DATA 4
POINT_DATA 25
VECTORS U Float64
0 0 0.0
-0.814771 -2.34199 0.0
-9.89174 7.11479 0.0
10.237 -4.96026 0.0
-3.32705 -8.05094 0.0
19.0317 11.7969 0.0
-45.1953 15.8033 0.0
0 0 0.0
2.19347 3.63172 0.0
33.057 -15.1291 0.0
-40.8996 16.9364 0.0
0.987461 -4.10585 0.0
-0.119544 6.1836 0.0
67.0773 -30.7229 0.0
0 0 0.0
-0.924793 -7.97275 0.0
-4.86682 -17.3093 0.0
30.236 -9.81627 0.0
-0.0227772 -1.06507 0.0
-9.98671 -18.1673 0.0
4.74689 13.0648 0.0
0 0 0.0
-5.1131 -15.2857 0.0
5.78778 15.3584 0.0
-2.73882 -4.77191 0.0

CELL_DATA 4
POINT_DATA 25
TENSORS E Float64
1.09236 0.379148  0.00
0.379148 -0.421695  0.00
0.00 0.00  0.00

1.13556 0.799304  0.00
0.799304 0.15347  0.00
0.00 0.00  0.00

1.97902 0.955382  0.00
0.955382 -0.32441  0.00
0.00 0.00  0.00

0.840828 -0.0763728  0.00
-0.0763728 -0.834386  0.00
0.00 0.00  0.00

2.15179 -0.0380358  0.00
-0.0380358 -1.73968  0.00
0.00 0.00  0.00

0.377683 -0.0307627  0.00
-0.0307627 -0.392552  0.00
0.00 0.00  0.00

3.11307 3.14175  0.00
3.14175 1.85086  0.00
0.00 0.00  0.00

2.07578 0.543085  0.00
0.543085 -0.666034  0.00
0.00 0.00  0.00

2.28106 0.338501  0.00
0.338501 -0.557187  0.00
0.00 0.00  0.00

3.39857 1.02528  0.00
1.02528 -0.649885  0.00
0.00 0.00  0.00

1.28394 0.601624  0.00
0.601624 -0.692448  0.00
0.00 0.00  0.00

2.2204 1.61352  0.00
1.61352 -0.818176  0.00
0.00 0.00  0.00

0.865729 0.171715  0.00
0.171715 -0.540955  0.00
0.00 0.00  0.00

5.57798 1.00131  0.00
1.00131 -0.279535  0.00
0.00 0.00  0.00

-0.219726 0.643256  0.00
0.643256 2.22454  0.00
0.00 0.00  0.00

-0.452985 1.10595  0.00
1.10595 1.67912  0.00
0.00 0.00  0.00

0.0536505 0.894559  0.00
0.894559 3.6695  0.00
0.00 0.00  0.00

-0.0165193 0.13608  0.00
0.13608 2.24878  0.00
0.00 0.00  0.00

0.739633 -0.484892  0.00
-0.484892 5.31853  0.00
0.00 0.00  0.00

-0.378191 0.416325  0.00
0.416325 0.936745  0.00
0.00 0.00  0.00

-0.175026 2.75253  0.00
2.75253 3.56741  0.00
0.00 0.00  0.00

-0.537178 0.00790139  0.00
0.00790139 2.23495  0.00
0.00 0.00  0.00

-0.236464 0.206277  0.00
0.206277 2.18033  0.00
0.00 0.00  0.00

-0.461935 0.293732  0.00
0.293732 3.22013  0.00
0.00 0.00  0.00

-0.745553 -0.198372  0.00
-0.198372 1.73313  0.00
0.00 0.00  0.00


CELL_DATA 4
POINT_DATA 25
TENSORS S Float64
1.09236 0.379148  0.00
0.379148 -0.421695  0.00
0.00 0.00  0.00

1.13556 0.799304  0.00
0.799304 0.15347  0.00
0.00 0.00  0.00

1.97902 0.955382  0.00
0.955382 -0.32441  0.00
0.00 0.00  0.00

0.840828 -0.0763728  0.00
-0.0763728 -0.834386  0.00
0.00 0.00  0.00

2.15179 -0.0380358  0.00
-0.0380358 -1.73968  0.00
0.00 0.00  0.00

0.377683 -0.0307627  0.00
-0.0307627 -0.392552  0.00
0.00 0.00  0.00

3.11307 3.14175  0.00
3.14175 1.85086  0.00
0.00 0.00  0.00

2.07578 0.543085  0.00
0.543085 -0.666034  0.00
0.00 0.00  0.00

2.28106 0.338501  0.00
0.338501 -0.557187  0.00
0.00 0.00  0.00

3.39857 1.02528  0.00
1.02528 -0.649885  0.00
0.00 0.00  0.00

1.28394 0.601624  0.00
0.601624 -0.692448  0.00
0.00 0.00  0.00

2.2204 1.61352  0.00
1.61352 -0.818176  0.00
0.00 0.00  0.00

0.865729 0.171715  0.00
0.171715 -0.540955  0.00
0.00 0.00  0.00

5.57798 1.00131  0.00
1.00131 -0.279535  0.00
0.00 0.00  0.00

-0.219726 0.643256  0.00
0.643256 2.22454  0.00
0.00 0.00  0.00

-0.452985 1.10595  0.00
1.10595 1.67912  0.00
0.00 0.00  0.00

0.0536505 0.894559  0.00
0.894559 3.6695  0.00
0.00 0.00  0.00

-0.0165193 0.13608  0.00
0.13608 2.24878  0.00
0.00 0.00  0.00

0.739633 -0.484892  0.00
-0.484892 5.31853  0.00
0.00 0.00  0.00

-0.378191 0.416325  0.00
0.416325 0.936745  0.00
0.00 0.00  0.00

-0.175026 2.75253  0.00
2.75253 3.56741  0.00
0.00 0.00  0.00

-0.537178 0.00790139  0.00
0.00790139 2.23495  0.00
0.00 0.00  0.00

-0.236464 0.206277  0.00
0.206277 2.18033  0.00
0.00 0.00  0.00

-0.461935 0.293732  0.00
0.293732 3.22013  0.00
0.00 0.00  0.00

-0.745553 -0.198372  0.00
-0.198372 1.73313  0.00
0.00 0.00  0.00


CELL_DATA 4
POINT_DATA 25
SCALARS ue float
LOOKUP_TABLE default
2.10476
3.11727
4.48271
0.698276
1.99977
0.326123
10.9615
2.20031
2.68816
4.28554
0.998276
2.30169
0.556847
8.38675
3.24707
2.25503
6.13948
3.31704
8.98503
0.846192
6.65291
2.17995
2.5374
3.81418
1.32246

