# vtk DataFile Version 2.0
FEM, Created by Wutzow
ASCII
DATASET UNSTRUCTURED_GRID
POINTS 25 Float64
0 0 0
2.70068 0.698419 0
-15.4939 6.6582 0
14.0286 -8.62139 0
-1.53941 -5.54063 0
14.1215 -2.12002 0
-53.9177 26.0161 0
0 0.333333 0
2.27668 3.29341 0
41.0744 -18.5498 0
-48.9241 31.0964 0
0.18025 -4.33745 0
-1.76242 4.35557 0
87.6923 -51.5547 0
0 0.666667 0
2.0623 -4.14164 0
8.69778 -14.1017 0
34.4662 -19.7704 0
-0.469851 -1.14913 0
8.92125 -18.3859 0
-8.39459 13.4005 0
0 1 0
2.25368 -13.2056 0
-3.99863 15.3351 0
1.65501 -3.66093 0

CELLS 4 44
10 0 3 12 1 2 6 9 8 4 5
10 3 24 12 10 17 20 16 9 6 13
10 24 21 12 23 22 18 15 16 20 19
10 21 0 12 14 7 4 8 15 18 11

CELL_TYPES 4
69
69
69
69

CELL_DATA 4
POINT_DATA 25
VECTORS Y Float64
0 0 0.0
2.70068 0.698419 0.0
-15.4939 6.6582 0.0
14.0286 -8.62139 0.0
-1.53941 -5.54063 0.0
14.1215 -2.12002 0.0
-53.9177 26.0161 0.0
0 0.333333 0.0
2.27668 3.29341 0.0
41.0744 -18.5498 0.0
-48.9241 31.0964 0.0
0.18025 -4.33745 0.0
-1.76242 4.35557 0.0
87.6923 -51.5547 0.0
0 0.666667 0.0
2.0623 -4.14164 0.0
8.69778 -14.1017 0.0
34.4662 -19.7704 0.0
-0.469851 -1.14913 0.0
8.92125 -18.3859 0.0
-8.39459 13.4005 0.0
0 1 0.0
2.25368 -13.2056 0.0
-3.99863 15.3351 0.0
1.65501 -3.66093 0.0

CELL_DATA 4
POINT_DATA 25
VECTORS U Float64
0 0 0.0
2.36735 0.698419 0.0
-16.1605 6.6582 0.0
13.0286 -8.62139 0.0
-1.70608 -5.7073 0.0
13.6215 -2.28669 0.0
-54.751 25.8495 0.0
0 0 0.0
1.94335 2.96008 0.0
40.4078 -18.8832 0.0
-49.9241 30.7631 0.0
0.0135832 -4.83745 0.0
-2.26242 3.85557 0.0
86.859 -52.0547 0.0
0 0 0.0
1.72897 -4.80831 0.0
8.03111 -14.7683 0.0
33.4662 -20.437 0.0
-0.636517 -1.98246 0.0
8.42125 -19.2193 0.0
-9.22793 12.5672 0.0
0 0 0.0
1.92035 -14.2056 0.0
-4.6653 14.3351 0.0
0.655011 -4.66093 0.0

CELL_DATA 4
POINT_DATA 25
TENSORS E Float64
-0.522264 1.51285  0.00
1.51285 2.56942  0.00
0.00 0.00  0.00

-0.143757 1.49852  0.00
1.49852 1.98902  0.00
0.00 0.00  0.00

-0.65616 2.43049  0.00
2.43049 4.12436  0.00
0.00 0.00  0.00

-0.783085 1.22135  0.00
1.22135 2.48326  0.00
0.00 0.00  0.00

-1.66289 2.46695  0.00
2.46695 5.44413  0.00
0.00 0.00  0.00

-0.345744 0.692964  0.00
0.692964 1.13682  0.00
0.00 0.00  0.00

0.417154 3.48814  0.00
3.48814 4.0823  0.00
0.00 0.00  0.00

0.385013 0.938826  0.00
0.938826 -0.0774851  0.00
0.00 0.00  0.00

0.750033 0.701434  0.00
0.701434 0.0250605  0.00
0.00 0.00  0.00

0.829244 1.48348  0.00
1.48348 0.184327  0.00
0.00 0.00  0.00

-0.190529 0.928101  0.00
0.928101 -0.269194  0.00
0.00 0.00  0.00

-0.600554 1.96229  0.00
1.96229 -0.217391  0.00
0.00 0.00  0.00

0.0179087 0.457661  0.00
0.457661 -0.209287  0.00
0.00 0.00  0.00

2.48022 1.37831  0.00
1.37831 0.754065  0.00
0.00 0.00  0.00

-0.226266 0.165638  0.00
0.165638 1.83513  0.00
0.00 0.00  0.00

-0.349714 0.639266  0.00
0.639266 1.4233  0.00
0.00 0.00  0.00

0.128547 0.089738  0.00
0.089738 3.08035  0.00
0.00 0.00  0.00

-0.195157 -0.239475  0.00
-0.239475 1.8244  0.00
0.00 0.00  0.00

0.350838 -1.28445  0.00
-1.28445 4.42168  0.00
0.00 0.00  0.00

-0.434905 0.23103  0.00
0.23103 0.741695  0.00
0.00 0.00  0.00

0.268789 1.56761  0.00
1.56761 3.15695  0.00
0.00 0.00  0.00

0.13418 0.230299  0.00
0.230299 2.35044  0.00
0.00 0.00  0.00

0.839947 0.54897  0.00
0.54897 2.1525  0.00
0.00 0.00  0.00

0.822264 0.741418  0.00
0.741418 3.48234  0.00
0.00 0.00  0.00

-0.821118 -0.19148  0.00
-0.19148 2.00513  0.00
0.00 0.00  0.00


CELL_DATA 4
POINT_DATA 25
TENSORS S Float64
-0.522264 1.51285  0.00
1.51285 2.56942  0.00
0.00 0.00  0.00

-0.143757 1.49852  0.00
1.49852 1.98902  0.00
0.00 0.00  0.00

-0.65616 2.43049  0.00
2.43049 4.12436  0.00
0.00 0.00  0.00

-0.783085 1.22135  0.00
1.22135 2.48326  0.00
0.00 0.00  0.00

-1.66289 2.46695  0.00
2.46695 5.44413  0.00
0.00 0.00  0.00

-0.345744 0.692964  0.00
0.692964 1.13682  0.00
0.00 0.00  0.00

0.417154 3.48814  0.00
3.48814 4.0823  0.00
0.00 0.00  0.00

0.385013 0.938826  0.00
0.938826 -0.0774851  0.00
0.00 0.00  0.00

0.750033 0.701434  0.00
0.701434 0.0250605  0.00
0.00 0.00  0.00

0.829244 1.48348  0.00
1.48348 0.184327  0.00
0.00 0.00  0.00

-0.190529 0.928101  0.00
0.928101 -0.269194  0.00
0.00 0.00  0.00

-0.600554 1.96229  0.00
1.96229 -0.217391  0.00
0.00 0.00  0.00

0.0179087 0.457661  0.00
0.457661 -0.209287  0.00
0.00 0.00  0.00

2.48022 1.37831  0.00
1.37831 0.754065  0.00
0.00 0.00  0.00

-0.226266 0.165638  0.00
0.165638 1.83513  0.00
0.00 0.00  0.00

-0.349714 0.639266  0.00
0.639266 1.4233  0.00
0.00 0.00  0.00

0.128547 0.089738  0.00
0.089738 3.08035  0.00
0.00 0.00  0.00

-0.195157 -0.239475  0.00
-0.239475 1.8244  0.00
0.00 0.00  0.00

0.350838 -1.28445  0.00
-1.28445 4.42168  0.00
0.00 0.00  0.00

-0.434905 0.23103  0.00
0.23103 0.741695  0.00
0.00 0.00  0.00

0.268789 1.56761  0.00
1.56761 3.15695  0.00
0.00 0.00  0.00

0.13418 0.230299  0.00
0.230299 2.35044  0.00
0.00 0.00  0.00

0.839947 0.54897  0.00
0.54897 2.1525  0.00
0.00 0.00  0.00

0.822264 0.741418  0.00
0.741418 3.48234  0.00
0.00 0.00  0.00

-0.821118 -0.19148  0.00
-0.19148 2.00513  0.00
0.00 0.00  0.00


CELL_DATA 4
POINT_DATA 25
SCALARS ue float
LOOKUP_TABLE default
2.40334
2.08233
4.08186
2.09995
4.74862
0.943648
5.07969
1.36688
1.55707
2.73102
0.539054
1.3165
0.304962
4.79859
2.81286
1.44718
5.40959
3.13403
8.8293
0.658916
4.06859
4.1969
5.32101
7.66415
1.65393

