# vtk DataFile Version 2.0
FEM, Created by Wutzow
ASCII
DATASET UNSTRUCTURED_GRID
POINTS 25 Float64
0 0 0
2.26486 8.04806 0
-13.8576 -21.3883 0
12.8073 13.3451 0
1.00516 2.20334 0
7.14772 0.671113 0
-51.5082 -46.8527 0
0 0.333333 0
2.31896 -3.41794 0
43.0474 36.3983 0
-44.2998 -49.5765 0
-1.01339 -4.96343 0
-4.9518 -0.459689 0
81.0366 67.7696 0
0 0.666667 0
6.1483 2.79836 0
16.1015 -14.8571 0
29.5837 42.2067 0
-1.57606 -3.27634 0
15.2766 -29.4979 0
-14.4107 19.783 0
0 1 0
7.40791 -11.5022 0
-10.4889 15.7528 0
3.33613 -5.00224 0

CELLS 4 44
10 0 3 12 1 2 6 9 8 4 5
10 3 24 12 10 17 20 16 9 6 13
10 24 21 12 23 22 18 15 16 20 19
10 21 0 12 14 7 4 8 15 18 11

CELL_TYPES 4
69
69
69
69

CELL_DATA 4
POINT_DATA 25
VECTORS Y Float64
0 0 0.0
2.26486 8.04806 0.0
-13.8576 -21.3883 0.0
12.8073 13.3451 0.0
1.00516 2.20334 0.0
7.14772 0.671113 0.0
-51.5082 -46.8527 0.0
0 0.333333 0.0
2.31896 -3.41794 0.0
43.0474 36.3983 0.0
-44.2998 -49.5765 0.0
-1.01339 -4.96343 0.0
-4.9518 -0.459689 0.0
81.0366 67.7696 0.0
0 0.666667 0.0
6.1483 2.79836 0.0
16.1015 -14.8571 0.0
29.5837 42.2067 0.0
-1.57606 -3.27634 0.0
15.2766 -29.4979 0.0
-14.4107 19.783 0.0
0 1 0.0
7.40791 -11.5022 0.0
-10.4889 15.7528 0.0
3.33613 -5.00224 0.0

CELL_DATA 4
POINT_DATA 25
VECTORS U Float64
0 0 0.0
1.93153 8.04806 0.0
-14.5242 -21.3883 0.0
11.8073 13.3451 0.0
0.838488 2.03668 0.0
6.64772 0.504446 0.0
-52.3416 -47.0193 0.0
0 0 0.0
1.98563 -3.75127 0.0
42.3807 36.065 0.0
-45.2998 -49.9098 0.0
-1.18006 -5.46343 0.0
-5.4518 -0.959689 0.0
80.2032 67.2696 0.0
0 0 0.0
5.81497 2.1317 0.0
15.4349 -15.5238 0.0
28.5837 41.54 0.0
-1.74273 -4.10967 0.0
14.7766 -30.3313 0.0
-15.244 18.9497 0.0
0 0 0.0
7.07458 -12.5022 0.0
-11.1556 14.7528 0.0
2.33613 -6.00224 0.0

CELL_DATA 4
POINT_DATA 25
TENSORS E Float64
3.92875 2.30626  0.00
2.30626 1.23845  0.00
0.00 0.00  0.00

4.1031 3.4618  0.00
3.4618 3.09301  0.00
0.00 0.00  0.00

7.54173 4.97368  0.00
4.97368 3.54486  0.00
0.00 0.00  0.00

2.63319 0.644127  0.00
0.644127 -0.822956  0.00
0.00 0.00  0.00

6.68928 1.80027  0.00
1.80027 -1.37189  0.00
0.00 0.00  0.00

1.11694 0.320296  0.00
0.320296 -0.346868  0.00
0.00 0.00  0.00

12.4231 12.3436  0.00
12.3436 12.8474  0.00
0.00 0.00  0.00

10.0772 4.20626  0.00
4.20626 2.25031  0.00
0.00 0.00  0.00

12.2666 4.44184  0.00
4.44184 1.91762  0.00
0.00 0.00  0.00

19.1828 8.71036  0.00
8.71036 6.10704  0.00
0.00 0.00  0.00

4.06472 1.59895  0.00
1.59895 -0.285494  0.00
0.00 0.00  0.00

8.88569 4.14175  0.00
4.14175 0.585994  0.00
0.00 0.00  0.00

2.5163 0.795066  0.00
0.795066 -0.271418  0.00
0.00 0.00  0.00

36.1544 14.1972  0.00
14.1972 8.42892  0.00
0.00 0.00  0.00

0.601524 0.684605  0.00
0.684605 2.19914  0.00
0.00 0.00  0.00

1.03204 1.59623  0.00
1.59623 2.08543  0.00
0.00 0.00  0.00

2.02249 1.4574  0.00
1.4574 4.12537  0.00
0.00 0.00  0.00

-0.0345594 -0.234771  0.00
-0.234771 1.78554  0.00
0.00 0.00  0.00

0.901073 -1.02942  0.00
-1.02942 4.60965  0.00
0.00 0.00  0.00

-0.374637 0.186714  0.00
0.186714 0.663438  0.00
0.00 0.00  0.00

5.56248 5.67364  0.00
5.67364 6.16944  0.00
0.00 0.00  0.00

0.484888 0.660728  0.00
0.660728 2.30093  0.00
0.00 0.00  0.00

0.646786 1.18007  0.00
1.18007 2.71321  0.00
0.00 0.00  0.00

1.829 1.90597  0.00
1.90597 3.82996  0.00
0.00 0.00  0.00

0.32266 0.00489964  0.00
0.00489964 1.28983  0.00
0.00 0.00  0.00


CELL_DATA 4
POINT_DATA 25
TENSORS S Float64
3.92875 2.30626  0.00
2.30626 1.23845  0.00
0.00 0.00  0.00

4.1031 3.4618  0.00
3.4618 3.09301  0.00
0.00 0.00  0.00

7.54173 4.97368  0.00
4.97368 3.54486  0.00
0.00 0.00  0.00

2.63319 0.644127  0.00
0.644127 -0.822956  0.00
0.00 0.00  0.00

6.68928 1.80027  0.00
1.80027 -1.37189  0.00
0.00 0.00  0.00

1.11694 0.320296  0.00
0.320296 -0.346868  0.00
0.00 0.00  0.00

12.4231 12.3436  0.00
12.3436 12.8474  0.00
0.00 0.00  0.00

10.0772 4.20626  0.00
4.20626 2.25031  0.00
0.00 0.00  0.00

12.2666 4.44184  0.00
4.44184 1.91762  0.00
0.00 0.00  0.00

19.1828 8.71036  0.00
8.71036 6.10704  0.00
0.00 0.00  0.00

4.06472 1.59895  0.00
1.59895 -0.285494  0.00
0.00 0.00  0.00

8.88569 4.14175  0.00
4.14175 0.585994  0.00
0.00 0.00  0.00

2.5163 0.795066  0.00
0.795066 -0.271418  0.00
0.00 0.00  0.00

36.1544 14.1972  0.00
14.1972 8.42892  0.00
0.00 0.00  0.00

0.601524 0.684605  0.00
0.684605 2.19914  0.00
0.00 0.00  0.00

1.03204 1.59623  0.00
1.59623 2.08543  0.00
0.00 0.00  0.00

2.02249 1.4574  0.00
1.4574 4.12537  0.00
0.00 0.00  0.00

-0.0345594 -0.234771  0.00
-0.234771 1.78554  0.00
0.00 0.00  0.00

0.901073 -1.02942  0.00
-1.02942 4.60965  0.00
0.00 0.00  0.00

-0.374637 0.186714  0.00
0.186714 0.663438  0.00
0.00 0.00  0.00

5.56248 5.67364  0.00
5.67364 6.16944  0.00
0.00 0.00  0.00

0.484888 0.660728  0.00
0.660728 2.30093  0.00
0.00 0.00  0.00

0.646786 1.18007  0.00
1.18007 2.71321  0.00
0.00 0.00  0.00

1.829 1.90597  0.00
1.90597 3.82996  0.00
0.00 0.00  0.00

0.32266 0.00489964  0.00
0.00489964 1.28983  0.00
0.00 0.00  0.00


CELL_DATA 4
POINT_DATA 25
SCALARS ue float
LOOKUP_TABLE default
31.7147
51.1667
70.0295
4.50534
12.9708
3.69447
184.461
147.685
100.525
341.328
29.913
104.643
13.3218
340.471
12.0029
18.912
26.9079
3.71246
10.7523
1.37938
72.3732
12.825
19.4758
29.0746
3.34478

