# vtk DataFile Version 2.0
FEM, Created by Wutzow
ASCII
DATASET UNSTRUCTURED_GRID
POINTS 25 Float64
0 0 0
-1.0648 -6.37334 0
-2.80146 16.5264 0
4.49649 -10.5625 0
-23.0408 -0.333068 0
45.1439 2.76921 0
-21.228 40.4743 0
0 0.333333 0
17.1199 0.0836945 0
9.60065 -30.0495 0
-15.3398 36.6959 0
2.83328 -5.27365 0
11.2391 0.969265 0
30.0122 -67.9686 0
0 0.666667 0
-15.9879 0.664864 0
-16.3861 -2.49877 0
14.9792 -25.3111 0
4.85947 -2.60508 0
-15.8002 -8.56776 0
9.94828 3.31875 0
0 1 0
-23.8527 -10.3151 0
25.3157 10.5 0
-3.99635 -1.69441 0

CELLS 4 44
10 0 3 12 1 2 6 9 8 4 5
10 3 24 12 10 17 20 16 9 6 13
10 24 21 12 23 22 18 15 16 20 19
10 21 0 12 14 7 4 8 15 18 11

CELL_TYPES 4
69
69
69
69

CELL_DATA 4
POINT_DATA 25
VECTORS Y Float64
0 0 0.0
-1.0648 -6.37334 0.0
-2.80146 16.5264 0.0
4.49649 -10.5625 0.0
-23.0408 -0.333068 0.0
45.1439 2.76921 0.0
-21.228 40.4743 0.0
0 0.333333 0.0
17.1199 0.0836945 0.0
9.60065 -30.0495 0.0
-15.3398 36.6959 0.0
2.83328 -5.27365 0.0
11.2391 0.969265 0.0
30.0122 -67.9686 0.0
0 0.666667 0.0
-15.9879 0.664864 0.0
-16.3861 -2.49877 0.0
14.9792 -25.3111 0.0
4.85947 -2.60508 0.0
-15.8002 -8.56776 0.0
9.94828 3.31875 0.0
0 1 0.0
-23.8527 -10.3151 0.0
25.3157 10.5 0.0
-3.99635 -1.69441 0.0

CELL_DATA 4
POINT_DATA 25
VECTORS U Float64
0 0 0.0
-1.39813 -6.37334 0.0
-3.46812 16.5264 0.0
3.49649 -10.5625 0.0
-23.2074 -0.499735 0.0
44.6439 2.60255 0.0
-22.0613 40.3077 0.0
0 0 0.0
16.7866 -0.249639 0.0
8.93399 -30.3828 0.0
-16.3398 36.3626 0.0
2.66661 -5.77365 0.0
10.7391 0.469265 0.0
29.1788 -68.4686 0.0
0 0 0.0
-16.3212 -0.00180282 0.0
-17.0528 -3.16544 0.0
13.9792 -25.9778 0.0
4.69281 -3.43841 0.0
-16.3002 -9.40109 0.0
9.11494 2.48541 0.0
0 0 0.0
-24.1861 -11.3151 0.0
24.649 9.50004 0.0
-4.99635 -2.69441 0.0

CELL_DATA 4
POINT_DATA 25
TENSORS E Float64
12.0153 21.6727  0.00
21.6727 92.586  0.00
0.00 0.00  0.00

13.1443 16.8273  0.00
16.8273 67.5885  0.00
0.00 0.00  0.00

22.5659 33.8906  0.00
33.8906 145.251  0.00
0.00 0.00  0.00

6.71837 20.7401  0.00
20.7401 92.666  0.00
0.00 0.00  0.00

18.1262 44.0867  0.00
44.0867 202.925  0.00
0.00 0.00  0.00

2.94979 10.12  0.00
10.12 42.8518  0.00
0.00 0.00  0.00

36.2068 31.9356  0.00
31.9356 122.801  0.00
0.00 0.00  0.00

13.3614 9.438  0.00
9.438 12.5291  0.00
0.00 0.00  0.00

11.312 7.96866  0.00
7.96866 9.92801  0.00
0.00 0.00  0.00

19.6583 13.8444  0.00
13.8444 19.2848  0.00
0.00 0.00  0.00

11.7164 8.7245  0.00
8.7245 11.6633  0.00
0.00 0.00  0.00

20.9236 16.4872  0.00
16.4872 23.9621  0.00
0.00 0.00  0.00

7.22164 5.05327  0.00
5.05327 6.21132  0.00
0.00 0.00  0.00

19.8846 14.0902  0.00
14.0902 17.8923  0.00
0.00 0.00  0.00

8.21801 -0.112472  0.00
-0.112472 7.26845  0.00
0.00 0.00  0.00

10.7646 -0.765653  0.00
-0.765653 9.391  0.00
0.00 0.00  0.00

17.9695 -0.403307  0.00
-0.403307 14.4535  0.00
0.00 0.00  0.00

1.60838 0.200128  0.00
0.200128 2.71043  0.00
0.00 0.00  0.00

5.15728 -0.0242045  0.00
-0.0242045 6.94635  0.00
0.00 0.00  0.00

0.857815 0.252148  0.00
0.252148 1.45597  0.00
0.00 0.00  0.00

36.7642 -3.12313  0.00
-3.12313 29.3292  0.00
0.00 0.00  0.00

31.4928 10.8411  0.00
10.8411 13.3118  0.00
0.00 0.00  0.00

43.4512 15.9681  0.00
15.9681 10.1659  0.00
0.00 0.00  0.00

62.935 21.8576  0.00
21.8576 26.2505  0.00
0.00 0.00  0.00

5.67745 1.4587  0.00
1.4587 12.333  0.00
0.00 0.00  0.00


CELL_DATA 4
POINT_DATA 25
TENSORS S Float64
12.0153 21.6727  0.00
21.6727 92.586  0.00
0.00 0.00  0.00

13.1443 16.8273  0.00
16.8273 67.5885  0.00
0.00 0.00  0.00

22.5659 33.8906  0.00
33.8906 145.251  0.00
0.00 0.00  0.00

6.71837 20.7401  0.00
20.7401 92.666  0.00
0.00 0.00  0.00

18.1262 44.0867  0.00
44.0867 202.925  0.00
0.00 0.00  0.00

2.94979 10.12  0.00
10.12 42.8518  0.00
0.00 0.00  0.00

36.2068 31.9356  0.00
31.9356 122.801  0.00
0.00 0.00  0.00

13.3614 9.438  0.00
9.438 12.5291  0.00
0.00 0.00  0.00

11.312 7.96866  0.00
7.96866 9.92801  0.00
0.00 0.00  0.00

19.6583 13.8444  0.00
13.8444 19.2848  0.00
0.00 0.00  0.00

11.7164 8.7245  0.00
8.7245 11.6633  0.00
0.00 0.00  0.00

20.9236 16.4872  0.00
16.4872 23.9621  0.00
0.00 0.00  0.00

7.22164 5.05327  0.00
5.05327 6.21132  0.00
0.00 0.00  0.00

19.8846 14.0902  0.00
14.0902 17.8923  0.00
0.00 0.00  0.00

8.21801 -0.112472  0.00
-0.112472 7.26845  0.00
0.00 0.00  0.00

10.7646 -0.765653  0.00
-0.765653 9.391  0.00
0.00 0.00  0.00

17.9695 -0.403307  0.00
-0.403307 14.4535  0.00
0.00 0.00  0.00

1.60838 0.200128  0.00
0.200128 2.71043  0.00
0.00 0.00  0.00

5.15728 -0.0242045  0.00
-0.0242045 6.94635  0.00
0.00 0.00  0.00

0.857815 0.252148  0.00
0.252148 1.45597  0.00
0.00 0.00  0.00

36.7642 -3.12313  0.00
-3.12313 29.3292  0.00
0.00 0.00  0.00

31.4928 10.8411  0.00
10.8411 13.3118  0.00
0.00 0.00  0.00

43.4512 15.9681  0.00
15.9681 10.1659  0.00
0.00 0.00  0.00

62.935 21.8576  0.00
21.8576 26.2505  0.00
0.00 0.00  0.00

5.67745 1.4587  0.00
1.4587 12.333  0.00
0.00 0.00  0.00


CELL_DATA 4
POINT_DATA 25
SCALARS ue float
LOOKUP_TABLE default
1842.37
1275.25
2968.83
1877.5
4284.48
791.12
2391.21
109.138
87.345
167.381
94.0239
177.019
55.6856
154.818
196.148
209.248
448.171
33.3289
118.879
18.8439
723.448
1905.42
2640.35
3787.71
364.486

