# vtk DataFile Version 2.0
FEM, Created by Wutzow
ASCII
DATASET UNSTRUCTURED_GRID
POINTS 25 Float64
0 0 0
3.42889 0.389695 0
-3.48129 2.64052 0
0.810073 -3.5413 0
5.22918 -3.00035 0
-15.1103 0.406901 0
-1.09675 14.7915 0
0 0.333333 0
-2.54821 1.92313 0
5.02592 -13.1065 0
0.222482 12.3918 0
-1.3243 -0.797566 0
-3.43636 2.97437 0
0.637781 -20.9081 0
0 0.666667 0
5.26623 -2.55949 0
6.13255 -3.6277 0
0.896834 -8.39394 0
-1.27399 0.64037 0
-2.30418 2.64325 0
-1.5075 2.05756 0
0 1 0
0.428086 0.223267 0
0.430636 0.67468 0
0.755579 0.611431 0

CELLS 4 44
10 0 3 12 1 2 6 9 8 4 5
10 3 24 12 10 17 20 16 9 6 13
10 24 21 12 23 22 18 15 16 20 19
10 21 0 12 14 7 4 8 15 18 11

CELL_TYPES 4
69
69
69
69

CELL_DATA 4
POINT_DATA 25
VECTORS Y Float64
0 0 0.0
3.42889 0.389695 0.0
-3.48129 2.64052 0.0
0.810073 -3.5413 0.0
5.22918 -3.00035 0.0
-15.1103 0.406901 0.0
-1.09675 14.7915 0.0
0 0.333333 0.0
-2.54821 1.92313 0.0
5.02592 -13.1065 0.0
0.222482 12.3918 0.0
-1.3243 -0.797566 0.0
-3.43636 2.97437 0.0
0.637781 -20.9081 0.0
0 0.666667 0.0
5.26623 -2.55949 0.0
6.13255 -3.6277 0.0
0.896834 -8.39394 0.0
-1.27399 0.64037 0.0
-2.30418 2.64325 0.0
-1.5075 2.05756 0.0
0 1 0.0
0.428086 0.223267 0.0
0.430636 0.67468 0.0
0.755579 0.611431 0.0

CELL_DATA 4
POINT_DATA 25
VECTORS U Float64
0 0 0.0
3.09555 0.389695 0.0
-4.14796 2.64052 0.0
-0.189927 -3.5413 0.0
5.06251 -3.16702 0.0
-15.6103 0.240235 0.0
-1.93009 14.6248 0.0
0 0 0.0
-2.88154 1.5898 0.0
4.35925 -13.4398 0.0
-0.777518 12.0585 0.0
-1.49096 -1.29757 0.0
-3.93636 2.47437 0.0
-0.195553 -21.4081 0.0
0 0 0.0
4.93289 -3.22616 0.0
5.46588 -4.29437 0.0
-0.103166 -9.06061 0.0
-1.44066 -0.192964 0.0
-2.80418 1.80992 0.0
-2.34084 1.22422 0.0
0 0 0.0
0.0947523 -0.776733 0.0
-0.236031 -0.32532 0.0
-0.244421 -0.388569 0.0

CELL_DATA 4
POINT_DATA 25
TENSORS E Float64
287.516 179.051  0.00
179.051 153.307  0.00
0.00 0.00  0.00

291.501 160.617  0.00
160.617 145.219  0.00
0.00 0.00  0.00

615.783 394.66  0.00
394.66 341.474  0.00
0.00 0.00  0.00

70.7277 51.7533  0.00
51.7533 44.0366  0.00
0.00 0.00  0.00

210.923 155.008  0.00
155.008 132.38  0.00
0.00 0.00  0.00

40.5882 24.6288  0.00
24.6288 20.2103  0.00
0.00 0.00  0.00

900.873 518.342  0.00
518.342 488.003  0.00
0.00 0.00  0.00

2304.69 1842.2  0.00
1842.2 1749.99  0.00
0.00 0.00  0.00

2094.64 1714.97  0.00
1714.97 1483.66  0.00
0.00 0.00  0.00

4979.72 4091.63  0.00
4091.63 4009.12  0.00
0.00 0.00  0.00

1446.29 873.677  0.00
873.677 614.688  0.00
0.00 0.00  0.00

4602.5 2859.08  0.00
2859.08 2107.4  0.00
0.00 0.00  0.00

283.698 200.218  0.00
200.218 164.275  0.00
0.00 0.00  0.00

7200.08 5961.12  0.00
5961.12 5195.1  0.00
0.00 0.00  0.00

5892.96 8241.78  0.00
8241.78 12989.1  0.00
0.00 0.00  0.00

7959.94 11343.8  0.00
11343.8 17987  0.00
0.00 0.00  0.00

12173.6 16758.3  0.00
16758.3 26129.7  0.00
0.00 0.00  0.00

1423.66 1893.03  0.00
1893.03 2776.52  0.00
0.00 0.00  0.00

3993.17 5290.2  0.00
5290.2 7742.6  0.00
0.00 0.00  0.00

867.627 1232.51  0.00
1232.51 1963.3  0.00
0.00 0.00  0.00

25552.6 35628.4  0.00
35628.4 55406.5  0.00
0.00 0.00  0.00

10738.9 6642.07  0.00
6642.07 4752.17  0.00
0.00 0.00  0.00

12798.2 7451.98  0.00
7451.98 4915.01  0.00
0.00 0.00  0.00

21357.3 12941.5  0.00
12941.5 9006.06  0.00
0.00 0.00  0.00

3293.67 2805.45  0.00
2805.45 2669.07  0.00
0.00 0.00  0.00


CELL_DATA 4
POINT_DATA 25
TENSORS S Float64
287.516 179.051  0.00
179.051 153.307  0.00
0.00 0.00  0.00

291.501 160.617  0.00
160.617 145.219  0.00
0.00 0.00  0.00

615.783 394.66  0.00
394.66 341.474  0.00
0.00 0.00  0.00

70.7277 51.7533  0.00
51.7533 44.0366  0.00
0.00 0.00  0.00

210.923 155.008  0.00
155.008 132.38  0.00
0.00 0.00  0.00

40.5882 24.6288  0.00
24.6288 20.2103  0.00
0.00 0.00  0.00

900.873 518.342  0.00
518.342 488.003  0.00
0.00 0.00  0.00

2304.69 1842.2  0.00
1842.2 1749.99  0.00
0.00 0.00  0.00

2094.64 1714.97  0.00
1714.97 1483.66  0.00
0.00 0.00  0.00

4979.72 4091.63  0.00
4091.63 4009.12  0.00
0.00 0.00  0.00

1446.29 873.677  0.00
873.677 614.688  0.00
0.00 0.00  0.00

4602.5 2859.08  0.00
2859.08 2107.4  0.00
0.00 0.00  0.00

283.698 200.218  0.00
200.218 164.275  0.00
0.00 0.00  0.00

7200.08 5961.12  0.00
5961.12 5195.1  0.00
0.00 0.00  0.00

5892.96 8241.78  0.00
8241.78 12989.1  0.00
0.00 0.00  0.00

7959.94 11343.8  0.00
11343.8 17987  0.00
0.00 0.00  0.00

12173.6 16758.3  0.00
16758.3 26129.7  0.00
0.00 0.00  0.00

1423.66 1893.03  0.00
1893.03 2776.52  0.00
0.00 0.00  0.00

3993.17 5290.2  0.00
5290.2 7742.6  0.00
0.00 0.00  0.00

867.627 1232.51  0.00
1232.51 1963.3  0.00
0.00 0.00  0.00

25552.6 35628.4  0.00
35628.4 55406.5  0.00
0.00 0.00  0.00

10738.9 6642.07  0.00
6642.07 4752.17  0.00
0.00 0.00  0.00

12798.2 7451.98  0.00
7451.98 4915.01  0.00
0.00 0.00  0.00

21357.3 12941.5  0.00
12941.5 9006.06  0.00
0.00 0.00  0.00

3293.67 2805.45  0.00
2805.45 2669.07  0.00
0.00 0.00  0.00


CELL_DATA 4
POINT_DATA 25
SCALARS ue float
LOOKUP_TABLE default
940375
318028
2.35047e+06
169801
661435
52627.6
1.23796e+06
2.89419e+07
2.23095e+07
6.84943e+07
6.67144e+06
2.44653e+07
2.30943e+06
7.95308e+07
3.27734e+08
4.77741e+08
6.65131e+08
4.2156e+07
1.12921e+08
4.74442e+07
1.48537e+09
2.07106e+08
2.72384e+08
4.16529e+08
3.52391e+07

