# vtk DataFile Version 2.0
FEM, Created by Wutzow
ASCII
DATASET UNSTRUCTURED_GRID
POINTS 25 Float64
0 0 0
1.61427 4.04963 0
-10.9588 -7.6604 0
10.4078 3.2743 0
4.04658 2.07774 0
1.48261 -8.13075 0
-46.1106 -13.5112 0
0 0.333333 0
-1.56336 -1.34118 0
42.5536 11.9841 0
-36.7771 -10.9721 0
-0.653638 -6.01378 0
-4.91377 -1.38243 0
58.1313 17.8081 0
0 0.666667 0
6.59541 3.67579 0
-6.86556 0.415338 0
31.2067 8.23895 0
-1.8865 -3.37915 0
-28.4541 -2.53626 0
15.3434 1.22629 0
0 1 0
-7.87443 -0.361939 0
12.4566 0.206771 0
-4.18502 -0.336401 0

CELLS 4 44
10 0 3 12 1 2 6 9 8 4 5
10 3 24 12 10 17 20 16 9 6 13
10 24 21 12 23 22 18 15 16 20 19
10 21 0 12 14 7 4 8 15 18 11

CELL_TYPES 4
69
69
69
69

CELL_DATA 4
POINT_DATA 25
VECTORS Y Float64
0 0 0.0
1.61427 4.04963 0.0
-10.9588 -7.6604 0.0
10.4078 3.2743 0.0
4.04658 2.07774 0.0
1.48261 -8.13075 0.0
-46.1106 -13.5112 0.0
0 0.333333 0.0
-1.56336 -1.34118 0.0
42.5536 11.9841 0.0
-36.7771 -10.9721 0.0
-0.653638 -6.01378 0.0
-4.91377 -1.38243 0.0
58.1313 17.8081 0.0
0 0.666667 0.0
6.59541 3.67579 0.0
-6.86556 0.415338 0.0
31.2067 8.23895 0.0
-1.8865 -3.37915 0.0
-28.4541 -2.53626 0.0
15.3434 1.22629 0.0
0 1 0.0
-7.87443 -0.361939 0.0
12.4566 0.206771 0.0
-4.18502 -0.336401 0.0

CELL_DATA 4
POINT_DATA 25
VECTORS U Float64
0 0 0.0
1.28094 4.04963 0.0
-11.6254 -7.6604 0.0
9.4078 3.2743 0.0
3.87992 1.91107 0.0
0.982606 -8.29741 0.0
-46.944 -13.6779 0.0
0 0 0.0
-1.89669 -1.67451 0.0
41.8869 11.6507 0.0
-37.7771 -11.3055 0.0
-0.820305 -6.51378 0.0
-5.41377 -1.88243 0.0
57.2979 17.3081 0.0
0 0 0.0
6.26207 3.00913 0.0
-7.53223 -0.251329 0.0
30.2067 7.57228 0.0
-2.05317 -4.21248 0.0
-28.9541 -3.36959 0.0
14.5101 0.392954 0.0
0 0 0.0
-8.20776 -1.36194 0.0
11.7899 -0.793229 0.0
-5.18502 -1.3364 0.0

CELL_DATA 4
POINT_DATA 25
TENSORS E Float64
0.362756 0.618865  0.00
0.618865 0.585293  0.00
0.00 0.00  0.00

0.317167 0.691485  0.00
0.691485 0.446255  0.00
0.00 0.00  0.00

0.850987 1.28924  0.00
1.28924 1.13581  0.00
0.00 0.00  0.00

0.367513 0.398321  0.00
0.398321 0.568585  0.00
0.00 0.00  0.00

1.451 1.16497  0.00
1.16497 1.48963  0.00
0.00 0.00  0.00

0.0184035 0.0941448  0.00
0.0941448 0.133052  0.00
0.00 0.00  0.00

1.21574 2.42545  0.00
2.42545 1.49268  0.00
0.00 0.00  0.00

3.01599 1.01888  0.00
1.01888 -0.600003  0.00
0.00 0.00  0.00

3.16198 0.935617  0.00
0.935617 -0.349048  0.00
0.00 0.00  0.00

4.53174 1.63052  0.00
1.63052 -0.652429  0.00
0.00 0.00  0.00

2.10931 0.871132  0.00
0.871132 -0.755523  0.00
0.00 0.00  0.00

3.24424 1.70846  0.00
1.70846 -1.33654  0.00
0.00 0.00  0.00

1.54068 0.491245  0.00
0.491245 -0.435341  0.00
0.00 0.00  0.00

6.72379 2.1518  0.00
2.1518 0.141697  0.00
0.00 0.00  0.00

-0.382547 -0.0675929  0.00
-0.0675929 1.4972  0.00
0.00 0.00  0.00

-0.57433 0.424282  0.00
0.424282 1.03262  0.00
0.00 0.00  0.00

-0.139404 -0.164918  0.00
-0.164918 2.65494  0.00
0.00 0.00  0.00

-0.201091 -0.425676  0.00
-0.425676 1.59866  0.00
0.00 0.00  0.00

0.464622 -1.45221  0.00
-1.45221 4.23154  0.00
0.00 0.00  0.00

-0.504126 0.0507356  0.00
0.0507356 0.515132  0.00
0.00 0.00  0.00

-0.298401 1.39897  0.00
1.39897 2.475  0.00
0.00 0.00  0.00

-0.830907 -0.194487  0.00
-0.194487 1.96488  0.00
0.00 0.00  0.00

-0.606169 -0.00257359  0.00
-0.00257359 1.94105  0.00
0.00 0.00  0.00

-1.0513 -0.0460768  0.00
-0.0460768 2.82093  0.00
0.00 0.00  0.00

-0.843443 -0.316819  0.00
-0.316819 1.5653  0.00
0.00 0.00  0.00


CELL_DATA 4
POINT_DATA 25
TENSORS S Float64
0.362756 0.618865  0.00
0.618865 0.585293  0.00
0.00 0.00  0.00

0.317167 0.691485  0.00
0.691485 0.446255  0.00
0.00 0.00  0.00

0.850987 1.28924  0.00
1.28924 1.13581  0.00
0.00 0.00  0.00

0.367513 0.398321  0.00
0.398321 0.568585  0.00
0.00 0.00  0.00

1.451 1.16497  0.00
1.16497 1.48963  0.00
0.00 0.00  0.00

0.0184035 0.0941448  0.00
0.0941448 0.133052  0.00
0.00 0.00  0.00

1.21574 2.42545  0.00
2.42545 1.49268  0.00
0.00 0.00  0.00

3.01599 1.01888  0.00
1.01888 -0.600003  0.00
0.00 0.00  0.00

3.16198 0.935617  0.00
0.935617 -0.349048  0.00
0.00 0.00  0.00

4.53174 1.63052  0.00
1.63052 -0.652429  0.00
0.00 0.00  0.00

2.10931 0.871132  0.00
0.871132 -0.755523  0.00
0.00 0.00  0.00

3.24424 1.70846  0.00
1.70846 -1.33654  0.00
0.00 0.00  0.00

1.54068 0.491245  0.00
0.491245 -0.435341  0.00
0.00 0.00  0.00

6.72379 2.1518  0.00
2.1518 0.141697  0.00
0.00 0.00  0.00

-0.382547 -0.0675929  0.00
-0.0675929 1.4972  0.00
0.00 0.00  0.00

-0.57433 0.424282  0.00
0.424282 1.03262  0.00
0.00 0.00  0.00

-0.139404 -0.164918  0.00
-0.164918 2.65494  0.00
0.00 0.00  0.00

-0.201091 -0.425676  0.00
-0.425676 1.59866  0.00
0.00 0.00  0.00

0.464622 -1.45221  0.00
-1.45221 4.23154  0.00
0.00 0.00  0.00

-0.504126 0.0507356  0.00
0.0507356 0.515132  0.00
0.00 0.00  0.00

-0.298401 1.39897  0.00
1.39897 2.475  0.00
0.00 0.00  0.00

-0.830907 -0.194487  0.00
-0.194487 1.96488  0.00
0.00 0.00  0.00

-0.606169 -0.00257359  0.00
-0.00257359 1.94105  0.00
0.00 0.00  0.00

-1.0513 -0.0460768  0.00
-0.0460768 2.82093  0.00
0.00 0.00  0.00

-0.843443 -0.316819  0.00
-0.316819 1.5653  0.00
0.00 0.00  0.00


CELL_DATA 4
POINT_DATA 25
SCALARS ue float
LOOKUP_TABLE default
1.25952
1.32003
2.74213
0.929288
2.97343
0.147061
4.92552
3.13443
3.38548
5.32704
1.9873
3.69788
1.2717
8.76441
2.68571
1.57587
5.30948
2.97992
8.62278
0.538177
5.082
1.73999
2.07996
2.95898
1.10089

