# vtk DataFile Version 2.0
FEM, Created by Wutzow
ASCII
DATASET UNSTRUCTURED_GRID
POINTS 25 Float64
0 0 0
0.498229 -0.687314 0
-10.6369 2.25548 0
11.53 -1.65672 0
-0.881345 -5.90559 0
14.2635 10.0383 0
-47.0539 3.31322 0
0 0.333333 0
0.990984 2.7511 0
37.6159 -4.89876 0
-40.8972 6.33078 0
0.610955 -4.03613 0
-1.08285 5.07228 0
69.3384 -8.03094 0
0 0.666667 0
1.37047 -5.12395 0
-5.19856 -10.4207 0
32.8061 -2.84682 0
-0.391922 -0.850541 0
-16.1 -8.67342 0
8.81245 7.64632 0
0 1 0
-6.4089 -9.69295 0
9.15611 10.316 0
-2.66003 -2.14071 0

CELLS 4 44
10 0 3 12 1 2 6 9 8 4 5
10 3 24 12 10 17 20 16 9 6 13
10 24 21 12 23 22 18 15 16 20 19
10 21 0 12 14 7 4 8 15 18 11

CELL_TYPES 4
69
69
69
69

CELL_DATA 4
POINT_DATA 25
VECTORS Y Float64
0 0 0.0
0.498229 -0.687314 0.0
-10.6369 2.25548 0.0
11.53 -1.65672 0.0
-0.881345 -5.90559 0.0
14.2635 10.0383 0.0
-47.0539 3.31322 0.0
0 0.333333 0.0
0.990984 2.7511 0.0
37.6159 -4.89876 0.0
-40.8972 6.33078 0.0
0.610955 -4.03613 0.0
-1.08285 5.07228 0.0
69.3384 -8.03094 0.0
0 0.666667 0.0
1.37047 -5.12395 0.0
-5.19856 -10.4207 0.0
32.8061 -2.84682 0.0
-0.391922 -0.850541 0.0
-16.1 -8.67342 0.0
8.81245 7.64632 0.0
0 1 0.0
-6.4089 -9.69295 0.0
9.15611 10.316 0.0
-2.66003 -2.14071 0.0

CELL_DATA 4
POINT_DATA 25
VECTORS U Float64
0 0 0.0
0.164895 -0.687314 0.0
-11.3035 2.25548 0.0
10.53 -1.65672 0.0
-1.04801 -6.07226 0.0
13.7635 9.87159 0.0
-47.8872 3.14655 0.0
0 0 0.0
0.65765 2.41777 0.0
36.9492 -5.23209 0.0
-41.8972 5.99745 0.0
0.444288 -4.53613 0.0
-1.58285 4.57228 0.0
68.505 -8.53094 0.0
0 0 0.0
1.03714 -5.79061 0.0
-5.86523 -11.0873 0.0
31.8061 -3.51349 0.0
-0.558588 -1.68387 0.0
-16.6 -9.50675 0.0
7.97912 6.81299 0.0
0 0 0.0
-6.74224 -10.6929 0.0
8.48944 9.31603 0.0
-3.66003 -3.14071 0.0

CELL_DATA 4
POINT_DATA 25
TENSORS E Float64
2.06115 3.39596  0.00
3.39596 5.86469  0.00
0.00 0.00  0.00

1.86565 3.0646  0.00
3.0646 4.56465  0.00
0.00 0.00  0.00

3.27898 5.29665  0.00
5.29665 9.20374  0.00
0.00 0.00  0.00

1.84177 2.95181  0.00
2.95181 5.63291  0.00
0.00 0.00  0.00

4.01962 5.86975  0.00
5.86975 11.8949  0.00
0.00 0.00  0.00

0.974487 1.63391  0.00
1.63391 2.72299  0.00
0.00 0.00  0.00

3.95193 6.48254  0.00
6.48254 8.93332  0.00
0.00 0.00  0.00

3.94365 2.3219  0.00
2.3219 0.428032  0.00
0.00 0.00  0.00

3.83154 1.96234  0.00
1.96234 0.450654  0.00
0.00 0.00  0.00

5.81638 3.48403  0.00
3.48403 0.800441  0.00
0.00 0.00  0.00

3.08876 2.15835  0.00
2.15835 0.300636  0.00
0.00 0.00  0.00

5.12051 4.19112  0.00
4.19112 0.794661  0.00
0.00 0.00  0.00

2.0797 1.21845  0.00
1.21845 0.139808  0.00
0.00 0.00  0.00

7.57498 3.69388  0.00
3.69388 1.27685  0.00
0.00 0.00  0.00

-0.0600364 0.957124  0.00
0.957124 2.59753  0.00
0.00 0.00  0.00

-0.337476 1.32351  0.00
1.32351 1.97854  0.00
0.00 0.00  0.00

0.229659 1.27473  0.00
1.27473 4.13754  0.00
0.00 0.00  0.00

0.147355 0.46146  0.00
0.46146 2.59559  0.00
0.00 0.00  0.00

0.960344 0.0237681  0.00
0.0237681 5.83189  0.00
0.00 0.00  0.00

-0.255264 0.635636  0.00
0.635636 1.18549  0.00
0.00 0.00  0.00

-0.138863 2.87038  0.00
2.87038 3.87452  0.00
0.00 0.00  0.00

-0.810941 0.064013  0.00
0.064013 2.47808  0.00
0.00 0.00  0.00

-0.597032 0.138566  0.00
0.138566 2.17698  0.00
0.00 0.00  0.00

-0.972877 0.42853  0.00
0.42853 3.69797  0.00
0.00 0.00  0.00

-0.815895 0.00925506  0.00
0.00925506 2.25357  0.00
0.00 0.00  0.00


CELL_DATA 4
POINT_DATA 25
TENSORS S Float64
2.06115 3.39596  0.00
3.39596 5.86469  0.00
0.00 0.00  0.00

1.86565 3.0646  0.00
3.0646 4.56465  0.00
0.00 0.00  0.00

3.27898 5.29665  0.00
5.29665 9.20374  0.00
0.00 0.00  0.00

1.84177 2.95181  0.00
2.95181 5.63291  0.00
0.00 0.00  0.00

4.01962 5.86975  0.00
5.86975 11.8949  0.00
0.00 0.00  0.00

0.974487 1.63391  0.00
1.63391 2.72299  0.00
0.00 0.00  0.00

3.95193 6.48254  0.00
6.48254 8.93332  0.00
0.00 0.00  0.00

3.94365 2.3219  0.00
2.3219 0.428032  0.00
0.00 0.00  0.00

3.83154 1.96234  0.00
1.96234 0.450654  0.00
0.00 0.00  0.00

5.81638 3.48403  0.00
3.48403 0.800441  0.00
0.00 0.00  0.00

3.08876 2.15835  0.00
2.15835 0.300636  0.00
0.00 0.00  0.00

5.12051 4.19112  0.00
4.19112 0.794661  0.00
0.00 0.00  0.00

2.0797 1.21845  0.00
1.21845 0.139808  0.00
0.00 0.00  0.00

7.57498 3.69388  0.00
3.69388 1.27685  0.00
0.00 0.00  0.00

-0.0600364 0.957124  0.00
0.957124 2.59753  0.00
0.00 0.00  0.00

-0.337476 1.32351  0.00
1.32351 1.97854  0.00
0.00 0.00  0.00

0.229659 1.27473  0.00
1.27473 4.13754  0.00
0.00 0.00  0.00

0.147355 0.46146  0.00
0.46146 2.59559  0.00
0.00 0.00  0.00

0.960344 0.0237681  0.00
0.0237681 5.83189  0.00
0.00 0.00  0.00

-0.255264 0.635636  0.00
0.635636 1.18549  0.00
0.00 0.00  0.00

-0.138863 2.87038  0.00
2.87038 3.87452  0.00
0.00 0.00  0.00

-0.810941 0.064013  0.00
0.064013 2.47808  0.00
0.00 0.00  0.00

-0.597032 0.138566  0.00
0.138566 2.17698  0.00
0.00 0.00  0.00

-0.972877 0.42853  0.00
0.42853 3.69797  0.00
0.00 0.00  0.00

-0.815895 0.00925506  0.00
0.00925506 2.25357  0.00
0.00 0.00  0.00


CELL_DATA 4
POINT_DATA 25
SCALARS ue float
LOOKUP_TABLE default
11.7536
9.21907
18.7536
11.2411
24.3442
5.28956
18.7724
5.69449
5.4719
8.64579
4.58539
8.22319
2.89664
11.3644
3.57468
2.30834
6.32546
3.793
9.66246
1.18599
5.6069
2.31698
2.06758
4.01459
2.14124

