# vtk DataFile Version 2.0
FEM, Created by Wutzow
ASCII
DATASET UNSTRUCTURED_GRID
POINTS 25 Float64
0 0 0
1.69857 -1.51893 0
-9.7151 4.60665 0
8.71917 -3.31379 0
-6.23645 -1.02363 0
18.6301 1.46566 0
-36.6123 11.2741 0
0 0.333333 0
4.93106 0.569154 0
27.005 -8.20047 0
-29.321 11.876 0
0.368024 -5.35576 0
1.8169 1.04121 0
55.9737 -21.7597 0
0 0.666667 0
-2.91434 0.375865 0
0.542452 -4.55905 0
21.2372 -7.35666 0
1.02574 -2.43576 0
1.34832 -8.62161 0
-2.04572 5.07768 0
0 1 0
-4.1048 -7.30469 0
3.5119 7.68325 0
-0.0267708 -1.59466 0

CELLS 4 44
10 0 3 12 1 2 6 9 8 4 5
10 3 24 12 10 17 20 16 9 6 13
10 24 21 12 23 22 18 15 16 20 19
10 21 0 12 14 7 4 8 15 18 11

CELL_TYPES 4
69
69
69
69

CELL_DATA 4
POINT_DATA 25
VECTORS Y Float64
0 0 0.0
1.69857 -1.51893 0.0
-9.7151 4.60665 0.0
8.71917 -3.31379 0.0
-6.23645 -1.02363 0.0
18.6301 1.46566 0.0
-36.6123 11.2741 0.0
0 0.333333 0.0
4.93106 0.569154 0.0
27.005 -8.20047 0.0
-29.321 11.876 0.0
0.368024 -5.35576 0.0
1.8169 1.04121 0.0
55.9737 -21.7597 0.0
0 0.666667 0.0
-2.91434 0.375865 0.0
0.542452 -4.55905 0.0
21.2372 -7.35666 0.0
1.02574 -2.43576 0.0
1.34832 -8.62161 0.0
-2.04572 5.07768 0.0
0 1 0.0
-4.1048 -7.30469 0.0
3.5119 7.68325 0.0
-0.0267708 -1.59466 0.0

CELL_DATA 4
POINT_DATA 25
VECTORS U Float64
0 0 0.0
1.36524 -1.51893 0.0
-10.3818 4.60665 0.0
7.71917 -3.31379 0.0
-6.40312 -1.19029 0.0
18.1301 1.29899 0.0
-37.4456 11.1074 0.0
0 0 0.0
4.59773 0.235821 0.0
26.3384 -8.5338 0.0
-30.321 11.5426 0.0
0.201357 -5.85576 0.0
1.3169 0.541205 0.0
55.1403 -22.2597 0.0
0 0 0.0
-3.24767 -0.290802 0.0
-0.124214 -5.22572 0.0
20.2372 -8.02333 0.0
0.859072 -3.26909 0.0
0.848322 -9.45494 0.0
-2.87905 4.24435 0.0
0 0 0.0
-4.43813 -8.30469 0.0
2.84523 6.68325 0.0
-1.02677 -2.59466 0.0

CELL_DATA 4
POINT_DATA 25
TENSORS E Float64
-0.165024 2.21255  0.00
2.21255 7.32242  0.00
0.00 0.00  0.00

0.261392 2.00445  0.00
2.00445 5.33929  0.00
0.00 0.00  0.00

0.0481024 3.47609  0.00
3.47609 11.568  0.00
0.00 0.00  0.00

-0.624504 1.9134  0.00
1.9134 7.32572  0.00
0.00 0.00  0.00

-1.1431 3.88633  0.00
3.88633 16.1283  0.00
0.00 0.00  0.00

-0.289232 1.04553  0.00
1.04553 3.33739  0.00
0.00 0.00  0.00

1.55307 4.26323  0.00
4.26323 9.9318  0.00
0.00 0.00  0.00

0.823401 1.3824  0.00
1.3824 0.780231  0.00
0.00 0.00  0.00

1.04333 1.06551  0.00
1.06551 0.779476  0.00
0.00 0.00  0.00

1.4128 2.11289  0.00
2.11289 1.54674  0.00
0.00 0.00  0.00

0.260281 1.32988  0.00
1.32988 0.401145  0.00
0.00 0.00  0.00

0.17648 2.67748  0.00
2.67748 1.11864  0.00
0.00 0.00  0.00

0.297299 0.707243  0.00
0.707243 0.178216  0.00
0.00 0.00  0.00

2.72974 1.93344  0.00
1.93344 2.25291  0.00
0.00 0.00  0.00

0.167356 0.0986762  0.00
0.0986762 2.07487  0.00
0.00 0.00  0.00

0.144931 0.468394  0.00
0.468394 1.7429  0.00
0.00 0.00  0.00

0.971577 -0.033505  0.00
-0.033505 3.59057  0.00
0.00 0.00  0.00

-0.10579 -0.217303  0.00
-0.217303 1.88152  0.00
0.00 0.00  0.00

0.624814 -1.18704  0.00
-1.18704 4.61328  0.00
0.00 0.00  0.00

-0.385494 0.213941  0.00
0.213941 0.764034  0.00
0.00 0.00  0.00

1.89441 1.01456  0.00
1.01456 4.2121  0.00
0.00 0.00  0.00

1.67988 0.714051  0.00
0.714051 2.82927  0.00
0.00 0.00  0.00

2.93686 1.26752  0.00
1.26752 2.46494  0.00
0.00 0.00  0.00

3.85413 1.68697  0.00
1.68697 4.48437  0.00
0.00 0.00  0.00

-0.508153 -0.144697  0.00
-0.144697 2.49186  0.00
0.00 0.00  0.00


CELL_DATA 4
POINT_DATA 25
TENSORS S Float64
-0.165024 2.21255  0.00
2.21255 7.32242  0.00
0.00 0.00  0.00

0.261392 2.00445  0.00
2.00445 5.33929  0.00
0.00 0.00  0.00

0.0481024 3.47609  0.00
3.47609 11.568  0.00
0.00 0.00  0.00

-0.624504 1.9134  0.00
1.9134 7.32572  0.00
0.00 0.00  0.00

-1.1431 3.88633  0.00
3.88633 16.1283  0.00
0.00 0.00  0.00

-0.289232 1.04553  0.00
1.04553 3.33739  0.00
0.00 0.00  0.00

1.55307 4.26323  0.00
4.26323 9.9318  0.00
0.00 0.00  0.00

0.823401 1.3824  0.00
1.3824 0.780231  0.00
0.00 0.00  0.00

1.04333 1.06551  0.00
1.06551 0.779476  0.00
0.00 0.00  0.00

1.4128 2.11289  0.00
2.11289 1.54674  0.00
0.00 0.00  0.00

0.260281 1.32988  0.00
1.32988 0.401145  0.00
0.00 0.00  0.00

0.17648 2.67748  0.00
2.67748 1.11864  0.00
0.00 0.00  0.00

0.297299 0.707243  0.00
0.707243 0.178216  0.00
0.00 0.00  0.00

2.72974 1.93344  0.00
1.93344 2.25291  0.00
0.00 0.00  0.00

0.167356 0.0986762  0.00
0.0986762 2.07487  0.00
0.00 0.00  0.00

0.144931 0.468394  0.00
0.468394 1.7429  0.00
0.00 0.00  0.00

0.971577 -0.033505  0.00
-0.033505 3.59057  0.00
0.00 0.00  0.00

-0.10579 -0.217303  0.00
-0.217303 1.88152  0.00
0.00 0.00  0.00

0.624814 -1.18704  0.00
-1.18704 4.61328  0.00
0.00 0.00  0.00

-0.385494 0.213941  0.00
0.213941 0.764034  0.00
0.00 0.00  0.00

1.89441 1.01456  0.00
1.01456 4.2121  0.00
0.00 0.00  0.00

1.67988 0.714051  0.00
0.714051 2.82927  0.00
0.00 0.00  0.00

2.93686 1.26752  0.00
1.26752 2.46494  0.00
0.00 0.00  0.00

3.85413 1.68697  0.00
1.68697 4.48437  0.00
0.00 0.00  0.00

-0.508153 -0.144697  0.00
-0.144697 2.49186  0.00
0.00 0.00  0.00


CELL_DATA 4
POINT_DATA 25
SCALARS ue float
LOOKUP_TABLE default
12.3542
8.65596
20.0731
12.4915
28.6312
5.22062
16.8315
1.83712
1.74387
3.47669
0.940526
2.09756
0.536625
4.73556
3.73852
2.32148
7.56768
3.26019
9.35229
0.731919
7.06606
15.3639
20.8726
29.8345
3.64957

