# vtk DataFile Version 2.0
FEM, Created by Wutzow
ASCII
DATASET UNSTRUCTURED_GRID
POINTS 25 Float64
0 0 0
0.737422 5.18404 0
-9.08263 -11.0668 0
9.44081 5.64198 0
4.27536 3.48578 0
1.74332 -9.50983 0
-42.3531 -22.7233 0
0 0.333333 0
-1.63229 -2.36075 0
39.8803 19.3694 0
-33.2059 -19.1019 0
-0.697832 -6.22485 0
-5.11284 -2.35766 0
52.789 33.1226 0
0 0.666667 0
6.87817 5.04125 0
-4.23021 4.03498 0
27.676 13.5532 0
-1.97492 -3.7841 0
-23.023 0.84237 0
12.021 -2.0448 0
0 1 0
-5.20983 0.937726 0
8.93439 -1.73346 0
-3.25178 0.342258 0

CELLS 4 44
10 0 3 12 1 2 6 9 8 4 5
10 3 24 12 10 17 20 16 9 6 13
10 24 21 12 23 22 18 15 16 20 19
10 21 0 12 14 7 4 8 15 18 11

CELL_TYPES 4
69
69
69
69

CELL_DATA 4
POINT_DATA 25
VECTORS Y Float64
0 0 0.0
0.737422 5.18404 0.0
-9.08263 -11.0668 0.0
9.44081 5.64198 0.0
4.27536 3.48578 0.0
1.74332 -9.50983 0.0
-42.3531 -22.7233 0.0
0 0.333333 0.0
-1.63229 -2.36075 0.0
39.8803 19.3694 0.0
-33.2059 -19.1019 0.0
-0.697832 -6.22485 0.0
-5.11284 -2.35766 0.0
52.789 33.1226 0.0
0 0.666667 0.0
6.87817 5.04125 0.0
-4.23021 4.03498 0.0
27.676 13.5532 0.0
-1.97492 -3.7841 0.0
-23.023 0.84237 0.0
12.021 -2.0448 0.0
0 1 0.0
-5.20983 0.937726 0.0
8.93439 -1.73346 0.0
-3.25178 0.342258 0.0

CELL_DATA 4
POINT_DATA 25
VECTORS U Float64
0 0 0.0
0.404088 5.18404 0.0
-9.7493 -11.0668 0.0
8.44081 5.64198 0.0
4.1087 3.31912 0.0
1.24332 -9.6765 0.0
-43.1864 -22.89 0.0
0 0 0.0
-1.96562 -2.69409 0.0
39.2136 19.0361 0.0
-34.2059 -19.4352 0.0
-0.864499 -6.72485 0.0
-5.61284 -2.85766 0.0
51.9557 32.6226 0.0
0 0 0.0
6.54484 4.37458 0.0
-4.89688 3.36831 0.0
26.676 12.8865 0.0
-2.14158 -4.61744 0.0
-23.523 0.00903673 0.0
11.1877 -2.87814 0.0
0 0 0.0
-5.54316 -0.0622741 0.0
8.26772 -2.73346 0.0
-4.25178 -0.657742 0.0

CELL_DATA 4
POINT_DATA 25
TENSORS E Float64
0.0579081 -0.0573322  0.00
-0.0573322 0.410916  0.00
0.00 0.00  0.00

0.207764 0.297852  0.00
0.297852 0.511786  0.00
0.00 0.00  0.00

0.398692 0.288651  0.00
0.288651 0.856438  0.00
0.00 0.00  0.00

-0.0776271 -0.385938  0.00
-0.385938 0.234155  0.00
0.00 0.00  0.00

0.288012 -0.589815  0.00
-0.589815 0.580908  0.00
0.00 0.00  0.00

-0.147797 -0.259227  0.00
-0.259227 0.0704825  0.00
0.00 0.00  0.00

1.30783 2.02498  0.00
2.02498 1.88144  0.00
0.00 0.00  0.00

0.428307 0.132135  0.00
0.132135 -0.648634  0.00
0.00 0.00  0.00

0.895803 0.171172  0.00
0.171172 -0.318801  0.00
0.00 0.00  0.00

1.02236 0.455369  0.00
0.455369 -0.555274  0.00
0.00 0.00  0.00

-0.240485 0.0550497  0.00
0.0550497 -0.92441  0.00
0.00 0.00  0.00

-0.558244 0.398783  0.00
0.398783 -1.52617  0.00
0.00 0.00  0.00

-0.0320752 -0.0539603  0.00
-0.0539603 -0.556545  0.00
0.00 0.00  0.00

3.19614 1.05812  0.00
1.05812 0.649967  0.00
0.00 0.00  0.00

-0.260175 0.158197  0.00
0.158197 1.8197  0.00
0.00 0.00  0.00

-0.401576 0.667066  0.00
0.667066 1.418  0.00
0.00 0.00  0.00

0.0880346 0.180847  0.00
0.180847 3.1679  0.00
0.00 0.00  0.00

-0.155299 -0.26046  0.00
-0.26046 1.78492  0.00
0.00 0.00  0.00

0.531133 -1.19089  0.00
-1.19089 4.49721  0.00
0.00 0.00  0.00

-0.464323 0.16783  0.00
0.16783 0.668172  0.00
0.00 0.00  0.00

0.237142 1.96133  0.00
1.96133 3.42064  0.00
0.00 0.00  0.00

-0.761707 -0.158235  0.00
-0.158235 2.16783  0.00
0.00 0.00  0.00

-0.476149 0.103933  0.00
0.103933 2.19837  0.00
0.00 0.00  0.00

-0.882827 0.0222463  0.00
0.0222463 3.1976  0.00
0.00 0.00  0.00

-0.860405 -0.355666  0.00
-0.355666 1.6579  0.00
0.00 0.00  0.00


CELL_DATA 4
POINT_DATA 25
TENSORS S Float64
0.0579081 -0.0573322  0.00
-0.0573322 0.410916  0.00
0.00 0.00  0.00

0.207764 0.297852  0.00
0.297852 0.511786  0.00
0.00 0.00  0.00

0.398692 0.288651  0.00
0.288651 0.856438  0.00
0.00 0.00  0.00

-0.0776271 -0.385938  0.00
-0.385938 0.234155  0.00
0.00 0.00  0.00

0.288012 -0.589815  0.00
-0.589815 0.580908  0.00
0.00 0.00  0.00

-0.147797 -0.259227  0.00
-0.259227 0.0704825  0.00
0.00 0.00  0.00

1.30783 2.02498  0.00
2.02498 1.88144  0.00
0.00 0.00  0.00

0.428307 0.132135  0.00
0.132135 -0.648634  0.00
0.00 0.00  0.00

0.895803 0.171172  0.00
0.171172 -0.318801  0.00
0.00 0.00  0.00

1.02236 0.455369  0.00
0.455369 -0.555274  0.00
0.00 0.00  0.00

-0.240485 0.0550497  0.00
0.0550497 -0.92441  0.00
0.00 0.00  0.00

-0.558244 0.398783  0.00
0.398783 -1.52617  0.00
0.00 0.00  0.00

-0.0320752 -0.0539603  0.00
-0.0539603 -0.556545  0.00
0.00 0.00  0.00

3.19614 1.05812  0.00
1.05812 0.649967  0.00
0.00 0.00  0.00

-0.260175 0.158197  0.00
0.158197 1.8197  0.00
0.00 0.00  0.00

-0.401576 0.667066  0.00
0.667066 1.418  0.00
0.00 0.00  0.00

0.0880346 0.180847  0.00
0.180847 3.1679  0.00
0.00 0.00  0.00

-0.155299 -0.26046  0.00
-0.26046 1.78492  0.00
0.00 0.00  0.00

0.531133 -1.19089  0.00
-1.19089 4.49721  0.00
0.00 0.00  0.00

-0.464323 0.16783  0.00
0.16783 0.668172  0.00
0.00 0.00  0.00

0.237142 1.96133  0.00
1.96133 3.42064  0.00
0.00 0.00  0.00

-0.761707 -0.158235  0.00
-0.158235 2.16783  0.00
0.00 0.00  0.00

-0.476149 0.103933  0.00
0.103933 2.19837  0.00
0.00 0.00  0.00

-0.882827 0.0222463  0.00
0.0222463 3.1976  0.00
0.00 0.00  0.00

-0.860405 -0.355666  0.00
-0.355666 1.6579  0.00
0.00 0.00  0.00


CELL_DATA 4
POINT_DATA 25
SCALARS ue float
LOOKUP_TABLE default
1.51322
2.12934
3.25858
0.659905
1.91646
0.233842
7.74248
2.17593
2.83038
4.65451
0.562471
1.49705
0.344621
9.71569
3.09977
2.28228
6.16185
3.07542
8.76205
0.63455
7.5787
2.1398
2.7515
3.81683
1.19607

