# vtk DataFile Version 2.0
FEM, Created by Wutzow
ASCII
DATASET UNSTRUCTURED_GRID
POINTS 25 Float64
0 0 0
3.81351 10.3568 0
-21.0223 -28.8101 0
18.8545 18.6073 0
1.8165 0.81179 0
11.2034 7.12847 0
-74.083 -65.4044 0
0 0.333333 0
1.42568 -3.7322 0
59.6465 49.6374 0
-65.0767 -69.2145 0
-1.0769 -4.24291 0
-5.48393 1.21173 0
120.019 94.2892 0
0 0.666667 0
6.6838 0.597118 0
23.0147 -24.3117 0
42.5078 59.6474 0
-1.6649 -2.65898 0
29.9367 -44.4985 0
-23.1914 30.1942 0
0 1 0
14.4767 -18.6713 0
-19.8801 25.4548 0
5.83461 -7.73127 0

CELLS 4 44
10 0 3 12 1 2 6 9 8 4 5
10 3 24 12 10 17 20 16 9 6 13
10 24 21 12 23 22 18 15 16 20 19
10 21 0 12 14 7 4 8 15 18 11

CELL_TYPES 4
69
69
69
69

CELL_DATA 4
POINT_DATA 25
VECTORS Y Float64
0 0 0.0
3.81351 10.3568 0.0
-21.0223 -28.8101 0.0
18.8545 18.6073 0.0
1.8165 0.81179 0.0
11.2034 7.12847 0.0
-74.083 -65.4044 0.0
0 0.333333 0.0
1.42568 -3.7322 0.0
59.6465 49.6374 0.0
-65.0767 -69.2145 0.0
-1.0769 -4.24291 0.0
-5.48393 1.21173 0.0
120.019 94.2892 0.0
0 0.666667 0.0
6.6838 0.597118 0.0
23.0147 -24.3117 0.0
42.5078 59.6474 0.0
-1.6649 -2.65898 0.0
29.9367 -44.4985 0.0
-23.1914 30.1942 0.0
0 1 0.0
14.4767 -18.6713 0.0
-19.8801 25.4548 0.0
5.83461 -7.73127 0.0

CELL_DATA 4
POINT_DATA 25
VECTORS U Float64
0 0 0.0
3.48018 10.3568 0.0
-21.6889 -28.8101 0.0
17.8545 18.6073 0.0
1.64984 0.645124 0.0
10.7034 6.9618 0.0
-74.9163 -65.5711 0.0
0 0 0.0
1.09235 -4.06553 0.0
58.9799 49.304 0.0
-66.0767 -69.5478 0.0
-1.24357 -4.74291 0.0
-5.98393 0.711729 0.0
119.185 93.7892 0.0
0 0 0.0
6.35046 -0.0695482 0.0
22.3481 -24.9784 0.0
41.5078 58.9807 0.0
-1.83156 -3.49232 0.0
29.4367 -45.3319 0.0
-24.0247 29.3608 0.0
0 0 0.0
14.1434 -19.6713 0.0
-20.5468 24.4548 0.0
4.83461 -8.73127 0.0

CELL_DATA 4
POINT_DATA 25
TENSORS E Float64
5.12717 5.65853  0.00
5.65853 6.41099  0.00
0.00 0.00  0.00

6.86109 8.32945  0.00
8.32945 10.1259  0.00
0.00 0.00  0.00

10.7281 11.4893  0.00
11.4893 13.4822  0.00
0.00 0.00  0.00

2.02764 1.9141  0.00
1.9141 1.36452  0.00
0.00 0.00  0.00

5.28839 4.32841  0.00
4.32841 3.30599  0.00
0.00 0.00  0.00

0.947138 1.22432  0.00
1.22432 1.02259  0.00
0.00 0.00  0.00

23.7427 28.1047  0.00
28.1047 34.9632  0.00
0.00 0.00  0.00

13.958 7.24867  0.00
7.24867 6.09851  0.00
0.00 0.00  0.00

18.3685 7.76382  0.00
7.76382 4.85252  0.00
0.00 0.00  0.00

27.3656 15.2328  0.00
15.2328 14.6617  0.00
0.00 0.00  0.00

3.31399 2.01728  0.00
2.01728 0.657631  0.00
0.00 0.00  0.00

6.83623 5.00958  0.00
5.00958 3.1816  0.00
0.00 0.00  0.00

2.93519 1.31315  0.00
1.31315 0.302486  0.00
0.00 0.00  0.00

55.136 24.8542  0.00
24.8542 18.0073  0.00
0.00 0.00  0.00

1.40151 1.67642  0.00
1.67642 3.04888  0.00
0.00 0.00  0.00

2.68456 3.4752  0.00
3.4752 3.72683  0.00
0.00 0.00  0.00

3.83266 3.61484  0.00
3.61484 5.97387  0.00
0.00 0.00  0.00

0.0433188 -0.1202  0.00
-0.1202 1.89193  0.00
0.00 0.00  0.00

0.983382 -0.833888  0.00
-0.833888 4.79771  0.00
0.00 0.00  0.00

-0.261413 0.330177  0.00
0.330177 0.784387  0.00
0.00 0.00  0.00

11.9867 12.5995  0.00
12.5995 12.2532  0.00
0.00 0.00  0.00

0.995638 1.55054  0.00
1.55054 3.30692  0.00
0.00 0.00  0.00

2.57152 2.8536  0.00
2.8536 4.05734  0.00
0.00 0.00  0.00

3.15003 3.97692  0.00
3.97692 6.05497  0.00
0.00 0.00  0.00

-0.629132 -0.0677453  0.00
-0.0677453 1.67271  0.00
0.00 0.00  0.00


CELL_DATA 4
POINT_DATA 25
TENSORS S Float64
5.12717 5.65853  0.00
5.65853 6.41099  0.00
0.00 0.00  0.00

6.86109 8.32945  0.00
8.32945 10.1259  0.00
0.00 0.00  0.00

10.7281 11.4893  0.00
11.4893 13.4822  0.00
0.00 0.00  0.00

2.02764 1.9141  0.00
1.9141 1.36452  0.00
0.00 0.00  0.00

5.28839 4.32841  0.00
4.32841 3.30599  0.00
0.00 0.00  0.00

0.947138 1.22432  0.00
1.22432 1.02259  0.00
0.00 0.00  0.00

23.7427 28.1047  0.00
28.1047 34.9632  0.00
0.00 0.00  0.00

13.958 7.24867  0.00
7.24867 6.09851  0.00
0.00 0.00  0.00

18.3685 7.76382  0.00
7.76382 4.85252  0.00
0.00 0.00  0.00

27.3656 15.2328  0.00
15.2328 14.6617  0.00
0.00 0.00  0.00

3.31399 2.01728  0.00
2.01728 0.657631  0.00
0.00 0.00  0.00

6.83623 5.00958  0.00
5.00958 3.1816  0.00
0.00 0.00  0.00

2.93519 1.31315  0.00
1.31315 0.302486  0.00
0.00 0.00  0.00

55.136 24.8542  0.00
24.8542 18.0073  0.00
0.00 0.00  0.00

1.40151 1.67642  0.00
1.67642 3.04888  0.00
0.00 0.00  0.00

2.68456 3.4752  0.00
3.4752 3.72683  0.00
0.00 0.00  0.00

3.83266 3.61484  0.00
3.61484 5.97387  0.00
0.00 0.00  0.00

0.0433188 -0.1202  0.00
-0.1202 1.89193  0.00
0.00 0.00  0.00

0.983382 -0.833888  0.00
-0.833888 4.79771  0.00
0.00 0.00  0.00

-0.261413 0.330177  0.00
0.330177 0.784387  0.00
0.00 0.00  0.00

11.9867 12.5995  0.00
12.5995 12.2532  0.00
0.00 0.00  0.00

0.995638 1.55054  0.00
1.55054 3.30692  0.00
0.00 0.00  0.00

2.57152 2.8536  0.00
2.8536 4.05734  0.00
0.00 0.00  0.00

3.15003 3.97692  0.00
3.97692 6.05497  0.00
0.00 0.00  0.00

-0.629132 -0.0677453  0.00
-0.0677453 1.67271  0.00
0.00 0.00  0.00


CELL_DATA 4
POINT_DATA 25
SCALARS ue float
LOOKUP_TABLE default
150.281
253.095
332.818
14.7265
41.8377
16.4793
915.366
680.247
418.916
1588.22
130.652
477.326
55.7765
1423.67
47.2511
87.997
108.813
5.52952
15.7635
4.44995
341.45
53.8793
90.282
125.785
5.07591

