# vtk DataFile Version 2.0
FEM, Created by Wutzow
ASCII
DATASET UNSTRUCTURED_GRID
POINTS 25 Float64
0 0 0
3.12779 -0.0266955 0
-4.03151 4.70819 0
1.35018 -5.3234 0
5.14425 -3.10456 0
-13.5604 -1.31413 0
-4.14614 21.5228 0
0 0.333333 0
-2.67614 1.93608 0
6.9711 -18.2824 0
-2.69064 18.5125 0
-1.47091 -2.09297 0
-3.50555 3.05089 0
4.91908 -31.7887 0
0 0.666667 0
5.04502 -2.51359 0
5.71099 -4.17491 0
2.74876 -13.0509 0
-1.2175 -0.145416 0
-2.91065 2.49313 0
-1.37148 2.11211 0
0 1 0
0.0906292 -0.358954 0
0.626277 0.64042 0
0.442628 0.349634 0

CELLS 4 44
10 0 3 12 1 2 6 9 8 4 5
10 3 24 12 10 17 20 16 9 6 13
10 24 21 12 23 22 18 15 16 20 19
10 21 0 12 14 7 4 8 15 18 11

CELL_TYPES 4
69
69
69
69

CELL_DATA 4
POINT_DATA 25
VECTORS Y Float64
0 0 0.0
3.12779 -0.0266955 0.0
-4.03151 4.70819 0.0
1.35018 -5.3234 0.0
5.14425 -3.10456 0.0
-13.5604 -1.31413 0.0
-4.14614 21.5228 0.0
0 0.333333 0.0
-2.67614 1.93608 0.0
6.9711 -18.2824 0.0
-2.69064 18.5125 0.0
-1.47091 -2.09297 0.0
-3.50555 3.05089 0.0
4.91908 -31.7887 0.0
0 0.666667 0.0
5.04502 -2.51359 0.0
5.71099 -4.17491 0.0
2.74876 -13.0509 0.0
-1.2175 -0.145416 0.0
-2.91065 2.49313 0.0
-1.37148 2.11211 0.0
0 1 0.0
0.0906292 -0.358954 0.0
0.626277 0.64042 0.0
0.442628 0.349634 0.0

CELL_DATA 4
POINT_DATA 25
VECTORS U Float64
0 0 0.0
2.79446 -0.0266955 0.0
-4.69817 4.70819 0.0
0.350181 -5.3234 0.0
4.97758 -3.27123 0.0
-14.0604 -1.48079 0.0
-4.97947 21.3561 0.0
0 0 0.0
-3.00947 1.60274 0.0
6.30444 -18.6157 0.0
-3.69064 18.1792 0.0
-1.63757 -2.59297 0.0
-4.00555 2.55089 0.0
4.08574 -32.2887 0.0
0 0 0.0
4.71169 -3.18025 0.0
5.04433 -4.84157 0.0
1.74876 -13.7175 0.0
-1.38416 -0.97875 0.0
-3.41065 1.65979 0.0
-2.20482 1.27878 0.0
0 0 0.0
-0.242704 -1.35895 0.0
-0.0403902 -0.35958 0.0
-0.557372 -0.650366 0.0

CELL_DATA 4
POINT_DATA 25
TENSORS E Float64
133.003 88.3025  0.00
88.3025 78.3486  0.00
0.00 0.00  0.00

133.561 78.744  0.00
78.744 72.2443  0.00
0.00 0.00  0.00

281.005 188.532  0.00
188.532 167.309  0.00
0.00 0.00  0.00

36.8942 30.9478  0.00
30.9478 29.6072  0.00
0.00 0.00  0.00

104.633 84.659  0.00
84.659 79.7108  0.00
0.00 0.00  0.00

21.1168 15.3807  0.00
15.3807 14.0158  0.00
0.00 0.00  0.00

405.938 243.771  0.00
243.771 230.197  0.00
0.00 0.00  0.00

1038.04 824.539  0.00
824.539 779.798  0.00
0.00 0.00  0.00

943.071 766.912  0.00
766.912 661.081  0.00
0.00 0.00  0.00

2232.12 1826.43  0.00
1826.43 1784.72  0.00
0.00 0.00  0.00

655.193 394.12  0.00
394.12 275.328  0.00
0.00 0.00  0.00

2066.24 1281.45  0.00
1281.45 941.264  0.00
0.00 0.00  0.00

134.278 92.5045  0.00
92.5045 74.1684  0.00
0.00 0.00  0.00

3219.56 2656.18  0.00
2656.18 2311.47  0.00
0.00 0.00  0.00

2614.97 3668.44  0.00
3668.44 5790.7  0.00
0.00 0.00  0.00

3539.53 5047.56  0.00
5047.56 8002.49  0.00
0.00 0.00  0.00

5400.2 7455.04  0.00
7455.04 11644.3  0.00
0.00 0.00  0.00

625.196 845.698  0.00
845.698 1256.04  0.00
0.00 0.00  0.00

1748.06 2357.22  0.00
2357.22 3500.78  0.00
0.00 0.00  0.00

386.504 551.56  0.00
551.56 878.663  0.00
0.00 0.00  0.00

11358.2 15844.3  0.00
15844.3 24639.7  0.00
0.00 0.00  0.00

4769.99 2960.25  0.00
2960.25 2136.15  0.00
0.00 0.00  0.00

5685.19 3318.99  0.00
3318.99 2205.51  0.00
0.00 0.00  0.00

9488.26 5763.87  0.00
5763.87 4036.79  0.00
0.00 0.00  0.00

1461.84 1254.43  0.00
1254.43 1207.94  0.00
0.00 0.00  0.00


CELL_DATA 4
POINT_DATA 25
TENSORS S Float64
133.003 88.3025  0.00
88.3025 78.3486  0.00
0.00 0.00  0.00

133.561 78.744  0.00
78.744 72.2443  0.00
0.00 0.00  0.00

281.005 188.532  0.00
188.532 167.309  0.00
0.00 0.00  0.00

36.8942 30.9478  0.00
30.9478 29.6072  0.00
0.00 0.00  0.00

104.633 84.659  0.00
84.659 79.7108  0.00
0.00 0.00  0.00

21.1168 15.3807  0.00
15.3807 14.0158  0.00
0.00 0.00  0.00

405.938 243.771  0.00
243.771 230.197  0.00
0.00 0.00  0.00

1038.04 824.539  0.00
824.539 779.798  0.00
0.00 0.00  0.00

943.071 766.912  0.00
766.912 661.081  0.00
0.00 0.00  0.00

2232.12 1826.43  0.00
1826.43 1784.72  0.00
0.00 0.00  0.00

655.193 394.12  0.00
394.12 275.328  0.00
0.00 0.00  0.00

2066.24 1281.45  0.00
1281.45 941.264  0.00
0.00 0.00  0.00

134.278 92.5045  0.00
92.5045 74.1684  0.00
0.00 0.00  0.00

3219.56 2656.18  0.00
2656.18 2311.47  0.00
0.00 0.00  0.00

2614.97 3668.44  0.00
3668.44 5790.7  0.00
0.00 0.00  0.00

3539.53 5047.56  0.00
5047.56 8002.49  0.00
0.00 0.00  0.00

5400.2 7455.04  0.00
7455.04 11644.3  0.00
0.00 0.00  0.00

625.196 845.698  0.00
845.698 1256.04  0.00
0.00 0.00  0.00

1748.06 2357.22  0.00
2357.22 3500.78  0.00
0.00 0.00  0.00

386.504 551.56  0.00
551.56 878.663  0.00
0.00 0.00  0.00

11358.2 15844.3  0.00
15844.3 24639.7  0.00
0.00 0.00  0.00

4769.99 2960.25  0.00
2960.25 2136.15  0.00
0.00 0.00  0.00

5685.19 3318.99  0.00
3318.99 2205.51  0.00
0.00 0.00  0.00

9488.26 5763.87  0.00
5763.87 4036.79  0.00
0.00 0.00  0.00

1461.84 1254.43  0.00
1254.43 1207.94  0.00
0.00 0.00  0.00


CELL_DATA 4
POINT_DATA 25
SCALARS ue float
LOOKUP_TABLE default
185856
62884.2
464409
33679.3
130927
10469.4
244546
5.71607e+06
4.40654e+06
1.35277e+07
1.31721e+06
4.83048e+06
456189
1.57085e+07
6.47372e+07
9.43677e+07
1.31383e+08
8.32786e+06
2.23077e+07
9.37196e+06
2.93403e+08
4.09162e+07
5.38099e+07
8.22862e+07
6.9668e+06

