# vtk DataFile Version 2.0
FEM, Created by Wutzow
ASCII
DATASET UNSTRUCTURED_GRID
POINTS 25 Float64
0 0 0
21.9883 46.6313 0
-86.4671 -135.123 0
68.2549 90.0233 0
-20.7741 1.93186 0
94.703 39.8414 0
-250.896 -332.571 0
0 0.333333 0
7.58272 -7.98012 0
182.316 255.58 0
-240.769 -319.551 0
6.72214 -2.48601 0
13.4647 -3.07071 0
380.304 501.14 0
0 0.666667 0
-18.6977 6.65208 0
-18.6088 -12.3238 0
180.698 242.425 0
5.52407 -4.52256 0
-0.454507 -31.2148 0
7.66432 19.7036 0
0 1 0
-10.9981 -9.90109 0
11.2981 14.4855 0
-1.81278 -4.97014 0

CELLS 4 44
10 0 3 12 1 2 6 9 8 4 5
10 3 24 12 10 17 20 16 9 6 13
10 24 21 12 23 22 18 15 16 20 19
10 21 0 12 14 7 4 8 15 18 11

CELL_TYPES 4
69
69
69
69

CELL_DATA 4
POINT_DATA 25
VECTORS Y Float64
0 0 0.0
21.9883 46.6313 0.0
-86.4671 -135.123 0.0
68.2549 90.0233 0.0
-20.7741 1.93186 0.0
94.703 39.8414 0.0
-250.896 -332.571 0.0
0 0.333333 0.0
7.58272 -7.98012 0.0
182.316 255.58 0.0
-240.769 -319.551 0.0
6.72214 -2.48601 0.0
13.4647 -3.07071 0.0
380.304 501.14 0.0
0 0.666667 0.0
-18.6977 6.65208 0.0
-18.6088 -12.3238 0.0
180.698 242.425 0.0
5.52407 -4.52256 0.0
-0.454507 -31.2148 0.0
7.66432 19.7036 0.0
0 1 0.0
-10.9981 -9.90109 0.0
11.2981 14.4855 0.0
-1.81278 -4.97014 0.0

CELL_DATA 4
POINT_DATA 25
VECTORS U Float64
0 0 0.0
21.655 46.6313 0.0
-87.1338 -135.123 0.0
67.2549 90.0233 0.0
-20.9408 1.76519 0.0
94.203 39.6747 0.0
-251.73 -332.738 0.0
0 0 0.0
7.24939 -8.31345 0.0
181.649 255.247 0.0
-241.769 -319.884 0.0
6.55548 -2.98601 0.0
12.9647 -3.57071 0.0
379.47 500.64 0.0
0 0 0.0
-19.0311 5.98542 0.0
-19.2755 -12.9905 0.0
179.698 241.758 0.0
5.3574 -5.35589 0.0
-0.954507 -32.0481 0.0
6.83098 18.8702 0.0
0 0 0.0
-11.3315 -10.9011 0.0
10.6314 13.4855 0.0
-2.81278 -5.97014 0.0

CELL_DATA 4
POINT_DATA 25
TENSORS E Float64
19.8932 29.0387  0.00
29.0387 46.0892  0.00
0.00 0.00  0.00

14.3127 21.8758  0.00
21.8758 32.002  0.00
0.00 0.00  0.00

31.5452 44.4506  0.00
44.4506 71.7428  0.00
0.00 0.00  0.00

20.9752 28.775  0.00
28.775 47.2938  0.00
0.00 0.00  0.00

49.4333 60.5998  0.00
60.5998 102.331  0.00
0.00 0.00  0.00

9.34258 14.2971  0.00
14.2971 21.5481  0.00
0.00 0.00  0.00

25.1999 38.4148  0.00
38.4148 55.6922  0.00
0.00 0.00  0.00

51.3451 24.1044  0.00
24.1044 10.6531  0.00
0.00 0.00  0.00

45.576 21.2135  0.00
21.2135 9.26717  0.00
0.00 0.00  0.00

73.6372 35.0076  0.00
35.0076 16.1116  0.00
0.00 0.00  0.00

44.9264 21.1664  0.00
21.1664 8.96232  0.00
0.00 0.00  0.00

77.6535 37.4573  0.00
37.4573 16.3539  0.00
0.00 0.00  0.00

28.6978 13.2392  0.00
13.2392 5.5169  0.00
0.00 0.00  0.00

80.0382 37.8925  0.00
37.8925 17.4071  0.00
0.00 0.00  0.00

5.5542 4.61313  0.00
4.61313 10.7861  0.00
0.00 0.00  0.00

7.60137 6.87038  0.00
6.87038 13.744  0.00
0.00 0.00  0.00

11.08 9.06893  0.00
9.06893 21.5119  0.00
0.00 0.00  0.00

1.41754 0.624273  0.00
0.624273 3.71029  0.00
0.00 0.00  0.00

3.20719 1.03879  0.00
1.03879 10.4892  0.00
0.00 0.00  0.00

1.06534 0.937419  0.00
0.937419 1.80951  0.00
0.00 0.00  0.00

23.7328 20.8522  0.00
20.8522 41.9778  0.00
0.00 0.00  0.00

7.68471 5.13219  0.00
5.13219 6.97638  0.00
0.00 0.00  0.00

8.48258 5.1521  0.00
5.1521 5.24309  0.00
0.00 0.00  0.00

16.1018 10.717  0.00
10.717 12.9414  0.00
0.00 0.00  0.00

3.27386 3.23583  0.00
3.23583 6.85631  0.00
0.00 0.00  0.00


CELL_DATA 4
POINT_DATA 25
TENSORS S Float64
19.8932 29.0387  0.00
29.0387 46.0892  0.00
0.00 0.00  0.00

14.3127 21.8758  0.00
21.8758 32.002  0.00
0.00 0.00  0.00

31.5452 44.4506  0.00
44.4506 71.7428  0.00
0.00 0.00  0.00

20.9752 28.775  0.00
28.775 47.2938  0.00
0.00 0.00  0.00

49.4333 60.5998  0.00
60.5998 102.331  0.00
0.00 0.00  0.00

9.34258 14.2971  0.00
14.2971 21.5481  0.00
0.00 0.00  0.00

25.1999 38.4148  0.00
38.4148 55.6922  0.00
0.00 0.00  0.00

51.3451 24.1044  0.00
24.1044 10.6531  0.00
0.00 0.00  0.00

45.576 21.2135  0.00
21.2135 9.26717  0.00
0.00 0.00  0.00

73.6372 35.0076  0.00
35.0076 16.1116  0.00
0.00 0.00  0.00

44.9264 21.1664  0.00
21.1664 8.96232  0.00
0.00 0.00  0.00

77.6535 37.4573  0.00
37.4573 16.3539  0.00
0.00 0.00  0.00

28.6978 13.2392  0.00
13.2392 5.5169  0.00
0.00 0.00  0.00

80.0382 37.8925  0.00
37.8925 17.4071  0.00
0.00 0.00  0.00

5.5542 4.61313  0.00
4.61313 10.7861  0.00
0.00 0.00  0.00

7.60137 6.87038  0.00
6.87038 13.744  0.00
0.00 0.00  0.00

11.08 9.06893  0.00
9.06893 21.5119  0.00
0.00 0.00  0.00

1.41754 0.624273  0.00
0.624273 3.71029  0.00
0.00 0.00  0.00

3.20719 1.03879  0.00
1.03879 10.4892  0.00
0.00 0.00  0.00

1.06534 0.937419  0.00
0.937419 1.80951  0.00
0.00 0.00  0.00

23.7328 20.8522  0.00
20.8522 41.9778  0.00
0.00 0.00  0.00

7.68471 5.13219  0.00
5.13219 6.97638  0.00
0.00 0.00  0.00

8.48258 5.1521  0.00
5.1521 5.24309  0.00
0.00 0.00  0.00

16.1018 10.717  0.00
10.717 12.9414  0.00
0.00 0.00  0.00

3.27386 3.23583  0.00
3.23583 6.85631  0.00
0.00 0.00  0.00


CELL_DATA 4
POINT_DATA 25
SCALARS ue float
LOOKUP_TABLE default
901.332
555.893
1461.24
991.272
2350.67
383.493
972.039
844.116
744.854
1199.89
739.543
1256.65
479.199
1275.34
153.971
221.856
312.508
22.9178
62.4171
22.4072
690.584
123.128
127.242
255.36
70.2442

