# vtk DataFile Version 2.0
FEM, Created by Wutzow
ASCII
DATASET UNSTRUCTURED_GRID
POINTS 25 Float64
0 0 0
2.04621 0.455857 0
-2.95623 3.01429 0
1.04817 -4.06065 0
4.462 -3.14356 0
-10.7636 -0.13183 0
-4.06932 16.8046 0
0 0.333333 0
-2.44586 1.75496 0
6.20421 -14.8986 0
-2.77327 13.984 0
-1.47709 -3.42152 0
-3.09901 2.86728 0
4.34921 -24.492 0
0 0.666667 0
4.15309 -2.0392 0
4.4648 -4.40883 0
2.5153 -9.88459 0
-0.977802 -1.17174 0
-3.37708 2.04165 0
-0.886939 2.06979 0
0 1 0
-0.375911 -1.0335 0
0.930224 0.658341 0
0.0624389 0.0513661 0

CELLS 4 44
10 0 3 12 1 2 6 9 8 4 5
10 3 24 12 10 17 20 16 9 6 13
10 24 21 12 23 22 18 15 16 20 19
10 21 0 12 14 7 4 8 15 18 11

CELL_TYPES 4
69
69
69
69

CELL_DATA 4
POINT_DATA 25
VECTORS Y Float64
0 0 0.0
2.04621 0.455857 0.0
-2.95623 3.01429 0.0
1.04817 -4.06065 0.0
4.462 -3.14356 0.0
-10.7636 -0.13183 0.0
-4.06932 16.8046 0.0
0 0.333333 0.0
-2.44586 1.75496 0.0
6.20421 -14.8986 0.0
-2.77327 13.984 0.0
-1.47709 -3.42152 0.0
-3.09901 2.86728 0.0
4.34921 -24.492 0.0
0 0.666667 0.0
4.15309 -2.0392 0.0
4.4648 -4.40883 0.0
2.5153 -9.88459 0.0
-0.977802 -1.17174 0.0
-3.37708 2.04165 0.0
-0.886939 2.06979 0.0
0 1 0.0
-0.375911 -1.0335 0.0
0.930224 0.658341 0.0
0.0624389 0.0513661 0.0

CELL_DATA 4
POINT_DATA 25
VECTORS U Float64
0 0 0.0
1.71288 0.455857 0.0
-3.6229 3.01429 0.0
0.0481746 -4.06065 0.0
4.29533 -3.31023 0.0
-11.2636 -0.298497 0.0
-4.90266 16.638 0.0
0 0 0.0
-2.77919 1.42163 0.0
5.53755 -15.2319 0.0
-3.77327 13.6507 0.0
-1.64376 -3.92152 0.0
-3.59901 2.36728 0.0
3.51587 -24.992 0.0
0 0 0.0
3.81975 -2.70587 0.0
3.79813 -5.0755 0.0
1.5153 -10.5513 0.0
-1.14447 -2.00508 0.0
-3.87708 1.20832 0.0
-1.72027 1.23646 0.0
0 0 0.0
-0.709244 -2.0335 0.0
0.263557 -0.341659 0.0
-0.937561 -0.948634 0.0

CELL_DATA 4
POINT_DATA 25
TENSORS E Float64
26.2098 19.3054  0.00
19.3054 17.7981  0.00
0.00 0.00  0.00

26.3165 17.2716  0.00
17.2716 16.0072  0.00
0.00 0.00  0.00

55.2488 40.2006  0.00
40.2006 36.6631  0.00
0.00 0.00  0.00

7.33536 7.65354  0.00
7.65354 8.1472  0.00
0.00 0.00  0.00

20.5853 19.8432  0.00
19.8432 20.6513  0.00
0.00 0.00  0.00

4.26301 3.88248  0.00
3.88248 3.85705  0.00
0.00 0.00  0.00

79.732 51.8793  0.00
51.8793 48.6898  0.00
0.00 0.00  0.00

206.644 164.006  0.00
164.006 153.696  0.00
0.00 0.00  0.00

187.791 152.295  0.00
152.295 130.229  0.00
0.00 0.00  0.00

443.017 362.428  0.00
362.428 352.058  0.00
0.00 0.00  0.00

130.845 79.1992  0.00
79.1992 54.3371  0.00
0.00 0.00  0.00

410.295 256.164  0.00
256.164 186.473  0.00
0.00 0.00  0.00

27.5423 18.9186  0.00
18.9186 14.4798  0.00
0.00 0.00  0.00

638.389 525.85  0.00
525.85 455.814  0.00
0.00 0.00  0.00

511.477 727.291  0.00
727.291 1156.49  0.00
0.00 0.00  0.00

698.696 1000.52  0.00
1000.52 1586.44  0.00
0.00 0.00  0.00

1056.29 1475.65  0.00
1475.65 2322.42  0.00
0.00 0.00  0.00

116.152 168.815  0.00
168.815 263.972  0.00
0.00 0.00  0.00

322.507 466.872  0.00
466.872 734.902  0.00
0.00 0.00  0.00

75.8361 111.082  0.00
111.082 177.771  0.00
0.00 0.00  0.00

2241.78 3135.51  0.00
3135.51 4877.35  0.00
0.00 0.00  0.00

938.583 589.249  0.00
589.249 438.842  0.00
0.00 0.00  0.00

1119.76 659.548  0.00
659.548 450.632  0.00
0.00 0.00  0.00

1868.98 1145.06  0.00
1145.06 821.09  0.00
0.00 0.00  0.00

285.619 251.815  0.00
251.815 253.566  0.00
0.00 0.00  0.00


CELL_DATA 4
POINT_DATA 25
TENSORS S Float64
26.2098 19.3054  0.00
19.3054 17.7981  0.00
0.00 0.00  0.00

26.3165 17.2716  0.00
17.2716 16.0072  0.00
0.00 0.00  0.00

55.2488 40.2006  0.00
40.2006 36.6631  0.00
0.00 0.00  0.00

7.33536 7.65354  0.00
7.65354 8.1472  0.00
0.00 0.00  0.00

20.5853 19.8432  0.00
19.8432 20.6513  0.00
0.00 0.00  0.00

4.26301 3.88248  0.00
3.88248 3.85705  0.00
0.00 0.00  0.00

79.732 51.8793  0.00
51.8793 48.6898  0.00
0.00 0.00  0.00

206.644 164.006  0.00
164.006 153.696  0.00
0.00 0.00  0.00

187.791 152.295  0.00
152.295 130.229  0.00
0.00 0.00  0.00

443.017 362.428  0.00
362.428 352.058  0.00
0.00 0.00  0.00

130.845 79.1992  0.00
79.1992 54.3371  0.00
0.00 0.00  0.00

410.295 256.164  0.00
256.164 186.473  0.00
0.00 0.00  0.00

27.5423 18.9186  0.00
18.9186 14.4798  0.00
0.00 0.00  0.00

638.389 525.85  0.00
525.85 455.814  0.00
0.00 0.00  0.00

511.477 727.291  0.00
727.291 1156.49  0.00
0.00 0.00  0.00

698.696 1000.52  0.00
1000.52 1586.44  0.00
0.00 0.00  0.00

1056.29 1475.65  0.00
1475.65 2322.42  0.00
0.00 0.00  0.00

116.152 168.815  0.00
168.815 263.972  0.00
0.00 0.00  0.00

322.507 466.872  0.00
466.872 734.902  0.00
0.00 0.00  0.00

75.8361 111.082  0.00
111.082 177.771  0.00
0.00 0.00  0.00

2241.78 3135.51  0.00
3135.51 4877.35  0.00
0.00 0.00  0.00

938.583 589.249  0.00
589.249 438.842  0.00
0.00 0.00  0.00

1119.76 659.548  0.00
659.548 450.632  0.00
0.00 0.00  0.00

1868.98 1145.06  0.00
1145.06 821.09  0.00
0.00 0.00  0.00

285.619 251.815  0.00
251.815 253.566  0.00
0.00 0.00  0.00


CELL_DATA 4
POINT_DATA 25
SCALARS ue float
LOOKUP_TABLE default
7260.46
2464.11
18133
1322.41
5124.81
413.045
9567.68
222916
171877
527554
51342.7
188289
17793.7
612699
2.52583e+06
3.68176e+06
5.12608e+06
325140
871061
365705
1.14469e+07
1.59724e+06
2.10017e+06
3.21162e+06
272639

