# vtk DataFile Version 2.0
FEM, Created by Wutzow
ASCII
DATASET UNSTRUCTURED_GRID
POINTS 25 Float64
0 0 0
1.11344 0.703872 0
-10.8478 -4.16646 0
10.9707 3.82161 0
4.24038 -2.64655 0
2.775 8.02902 0
-49.7644 -14.9753 0
0 0.333333 0
-2.17007 1.00708 0
46.0484 9.16867 0
-38.4673 -12.3154 0
-0.566878 -4.84419 0
-4.56462 2.30085 0
63.0102 24.1755 0
0 0.666667 0
6.09429 -1.37913 0
-4.53768 0.363967 0
31.6741 8.14608 0
-1.72322 -1.91149 0
-23.2205 6.20303 0
12.0196 -3.0197 0
0 1 0
-5.56375 -0.920548 0
9.4625 -0.711709 0
-3.35955 0.630799 0

CELLS 4 44
10 0 3 12 1 2 6 9 8 4 5
10 3 24 12 10 17 20 16 9 6 13
10 24 21 12 23 22 18 15 16 20 19
10 21 0 12 14 7 4 8 15 18 11

CELL_TYPES 4
69
69
69
69

CELL_DATA 4
POINT_DATA 25
VECTORS Y Float64
0 0 0.0
1.11344 0.703872 0.0
-10.8478 -4.16646 0.0
10.9707 3.82161 0.0
4.24038 -2.64655 0.0
2.775 8.02902 0.0
-49.7644 -14.9753 0.0
0 0.333333 0.0
-2.17007 1.00708 0.0
46.0484 9.16867 0.0
-38.4673 -12.3154 0.0
-0.566878 -4.84419 0.0
-4.56462 2.30085 0.0
63.0102 24.1755 0.0
0 0.666667 0.0
6.09429 -1.37913 0.0
-4.53768 0.363967 0.0
31.6741 8.14608 0.0
-1.72322 -1.91149 0.0
-23.2205 6.20303 0.0
12.0196 -3.0197 0.0
0 1 0.0
-5.56375 -0.920548 0.0
9.4625 -0.711709 0.0
-3.35955 0.630799 0.0

CELL_DATA 4
POINT_DATA 25
VECTORS U Float64
0 0 0.0
0.780111 0.703872 0.0
-11.5144 -4.16646 0.0
9.97072 3.82161 0.0
4.07371 -2.81321 0.0
2.275 7.86235 0.0
-50.5978 -15.1419 0.0
0 0 0.0
-2.50341 0.673747 0.0
45.3817 8.83533 0.0
-39.4673 -12.6487 0.0
-0.733545 -5.34419 0.0
-5.06462 1.80085 0.0
62.1769 23.6755 0.0
0 0 0.0
5.76095 -2.0458 0.0
-5.20434 -0.3027 0.0
30.6741 7.47942 0.0
-1.88988 -2.74482 0.0
-23.7205 5.3697 0.0
11.1862 -3.85303 0.0
0 0 0.0
-5.89708 -1.92055 0.0
8.79584 -1.71171 0.0
-4.35955 -0.369201 0.0

CELL_DATA 4
POINT_DATA 25
TENSORS E Float64
1.30848 0.780718  0.00
0.780718 0.327625  0.00
0.00 0.00  0.00

1.26585 0.944797  0.00
0.944797 0.396614  0.00
0.00 0.00  0.00

2.19671 1.38433  0.00
1.38433 0.611128  0.00
0.00 0.00  0.00

1.09114 0.494902  0.00
0.494902 0.222049  0.00
0.00 0.00  0.00

2.53775 1.02452  0.00
1.02452 0.456173  0.00
0.00 0.00  0.00

0.553263 0.286047  0.00
0.286047 0.106164  0.00
0.00 0.00  0.00

3.0118 2.73998  0.00
2.73998 1.30248  0.00
0.00 0.00  0.00

2.51655 0.759048  0.00
0.759048 -0.532098  0.00
0.00 0.00  0.00

2.71772 0.648978  0.00
0.648978 -0.214519  0.00
0.00 0.00  0.00

3.95899 1.2531  0.00
1.2531 -0.502757  0.00
0.00 0.00  0.00

1.66675 0.756612  0.00
0.756612 -0.685341  0.00
0.00 0.00  0.00

2.78564 1.7032  0.00
1.7032 -1.03557  0.00
0.00 0.00  0.00

1.16071 0.34998  0.00
0.34998 -0.434432  0.00
0.00 0.00  0.00

6.23752 1.57608  0.00
1.57608 0.626742  0.00
0.00 0.00  0.00

-0.193968 0.592748  0.00
0.592748 2.30156  0.00
0.00 0.00  0.00

-0.386102 1.066  0.00
1.066 1.86711  0.00
0.00 0.00  0.00

0.115168 0.794565  0.00
0.794565 3.82528  0.00
0.00 0.00  0.00

-0.0419453 0.100769  0.00
0.100769 2.18998  0.00
0.00 0.00  0.00

0.672055 -0.606768  0.00
-0.606768 5.11148  0.00
0.00 0.00  0.00

-0.380798 0.414115  0.00
0.414115 0.95807  0.00
0.00 0.00  0.00

0.0609259 2.65133  0.00
2.65133 4.1664  0.00
0.00 0.00  0.00

-0.807524 -0.0886376  0.00
-0.0886376 2.30189  0.00
0.00 0.00  0.00

-0.557897 0.145258  0.00
0.145258 2.32297  0.00
0.00 0.00  0.00

-0.957996 0.128155  0.00
0.128155 3.35698  0.00
0.00 0.00  0.00

-0.825182 -0.255653  0.00
-0.255653 1.7942  0.00
0.00 0.00  0.00


CELL_DATA 4
POINT_DATA 25
TENSORS S Float64
1.30848 0.780718  0.00
0.780718 0.327625  0.00
0.00 0.00  0.00

1.26585 0.944797  0.00
0.944797 0.396614  0.00
0.00 0.00  0.00

2.19671 1.38433  0.00
1.38433 0.611128  0.00
0.00 0.00  0.00

1.09114 0.494902  0.00
0.494902 0.222049  0.00
0.00 0.00  0.00

2.53775 1.02452  0.00
1.02452 0.456173  0.00
0.00 0.00  0.00

0.553263 0.286047  0.00
0.286047 0.106164  0.00
0.00 0.00  0.00

3.0118 2.73998  0.00
2.73998 1.30248  0.00
0.00 0.00  0.00

2.51655 0.759048  0.00
0.759048 -0.532098  0.00
0.00 0.00  0.00

2.71772 0.648978  0.00
0.648978 -0.214519  0.00
0.00 0.00  0.00

3.95899 1.2531  0.00
1.2531 -0.502757  0.00
0.00 0.00  0.00

1.66675 0.756612  0.00
0.756612 -0.685341  0.00
0.00 0.00  0.00

2.78564 1.7032  0.00
1.7032 -1.03557  0.00
0.00 0.00  0.00

1.16071 0.34998  0.00
0.34998 -0.434432  0.00
0.00 0.00  0.00

6.23752 1.57608  0.00
1.57608 0.626742  0.00
0.00 0.00  0.00

-0.193968 0.592748  0.00
0.592748 2.30156  0.00
0.00 0.00  0.00

-0.386102 1.066  0.00
1.066 1.86711  0.00
0.00 0.00  0.00

0.115168 0.794565  0.00
0.794565 3.82528  0.00
0.00 0.00  0.00

-0.0419453 0.100769  0.00
0.100769 2.18998  0.00
0.00 0.00  0.00

0.672055 -0.606768  0.00
-0.606768 5.11148  0.00
0.00 0.00  0.00

-0.380798 0.414115  0.00
0.414115 0.95807  0.00
0.00 0.00  0.00

0.0609259 2.65133  0.00
2.65133 4.1664  0.00
0.00 0.00  0.00

-0.807524 -0.0886376  0.00
-0.0886376 2.30189  0.00
0.00 0.00  0.00

-0.557897 0.145258  0.00
0.145258 2.32297  0.00
0.00 0.00  0.00

-0.957996 0.128155  0.00
0.128155 3.35698  0.00
0.00 0.00  0.00

-0.825182 -0.255653  0.00
-0.255653 1.7942  0.00
0.00 0.00  0.00


CELL_DATA 4
POINT_DATA 25
SCALARS ue float
LOOKUP_TABLE default
1.32655
1.81133
2.78047
0.648563
1.80296
0.259822
6.40247
2.61348
3.38933
4.82293
1.27171
2.59319
0.814104
10.1681
3.40227
2.51334
6.46715
3.36814
9.09863
0.878966
7.59704
2.19331
2.7046
3.80881
1.33748

