# vtk DataFile Version 2.0
FEM, Created by Wutzow
ASCII
DATASET UNSTRUCTURED_GRID
POINTS 25 Float64
0 0 0
-10.2217 -11.283 0
23.6165 25.1753 0
-13.2092 -14.2806 0
-51.9705 0.0163332 0
80.8399 13.6624 0
43.6421 53.1917 0
0 0.333333 0
39.6309 0.00477902 0
-48.2238 -38.4793 0
45.7767 50.5484 0
6.44429 -4.69715 0
27.0346 -0.0304124 0
-75.9146 -89.9009 0
0 0.666667 0
-38.0083 2.416 0
-43.4821 2.91772 0
-23.6005 -35.8004 0
11.3401 -3.32837 0
-43.5328 -8.9386 0
28.7423 -0.857221 0
0 1 0
-57.6841 -15.7881 0
62.364 15.4814 0
-10.5393 -1.7066 0

CELLS 4 44
10 0 3 12 1 2 6 9 8 4 5
10 3 24 12 10 17 20 16 9 6 13
10 24 21 12 23 22 18 15 16 20 19
10 21 0 12 14 7 4 8 15 18 11

CELL_TYPES 4
69
69
69
69

CELL_DATA 4
POINT_DATA 25
VECTORS Y Float64
0 0 0.0
-10.2217 -11.283 0.0
23.6165 25.1753 0.0
-13.2092 -14.2806 0.0
-51.9705 0.0163332 0.0
80.8399 13.6624 0.0
43.6421 53.1917 0.0
0 0.333333 0.0
39.6309 0.00477902 0.0
-48.2238 -38.4793 0.0
45.7767 50.5484 0.0
6.44429 -4.69715 0.0
27.0346 -0.0304124 0.0
-75.9146 -89.9009 0.0
0 0.666667 0.0
-38.0083 2.416 0.0
-43.4821 2.91772 0.0
-23.6005 -35.8004 0.0
11.3401 -3.32837 0.0
-43.5328 -8.9386 0.0
28.7423 -0.857221 0.0
0 1 0.0
-57.6841 -15.7881 0.0
62.364 15.4814 0.0
-10.5393 -1.7066 0.0

CELL_DATA 4
POINT_DATA 25
VECTORS U Float64
0 0 0.0
-10.5551 -11.283 0.0
22.9499 25.1753 0.0
-14.2092 -14.2806 0.0
-52.1372 -0.150333 0.0
80.3399 13.4957 0.0
42.8088 53.025 0.0
0 0 0.0
39.2976 -0.328554 0.0
-48.8904 -38.8127 0.0
44.7767 50.2151 0.0
6.27763 -5.19715 0.0
26.5346 -0.530412 0.0
-76.748 -90.4009 0.0
0 0 0.0
-38.3417 1.74934 0.0
-44.1488 2.25105 0.0
-24.6005 -36.4671 0.0
11.1735 -4.16171 0.0
-44.0328 -9.77193 0.0
27.909 -1.69055 0.0
0 0 0.0
-58.0175 -16.7881 0.0
61.6974 14.4814 0.0
-11.5393 -2.7066 0.0

CELL_DATA 4
POINT_DATA 25
TENSORS E Float64
68.0495 111.449  0.00
111.449 471.394  0.00
0.00 0.00  0.00

72.5327 86.5445  0.00
86.5445 345.355  0.00
0.00 0.00  0.00

126.488 175.471  0.00
175.471 740.59  0.00
0.00 0.00  0.00

40.4932 106.351  0.00
106.351 470.68  0.00
0.00 0.00  0.00

106.786 227.765  0.00
227.765 1031.38  0.00
0.00 0.00  0.00

17.7522 51.175  0.00
51.175 217.619  0.00
0.00 0.00  0.00

197.35 167.098  0.00
167.098 631.77  0.00
0.00 0.00  0.00

73.8373 44.2474  0.00
44.2474 66.8623  0.00
0.00 0.00  0.00

62.7348 36.6955  0.00
36.6955 53.5248  0.00
0.00 0.00  0.00

109.473 64.1  0.00
64.1 103.13  0.00
0.00 0.00  0.00

64.6926 41.9634  0.00
41.9634 61.8355  0.00
0.00 0.00  0.00

117.427 78.9742  0.00
78.9742 126.83  0.00
0.00 0.00  0.00

39.3339 24.2485  0.00
24.2485 32.9344  0.00
0.00 0.00  0.00

112.396 62.5899  0.00
62.5899 98.0927  0.00
0.00 0.00  0.00

44.6399 -0.0839202  0.00
-0.0839202 31.4447  0.00
0.00 0.00  0.00

58.9905 -5.01918  0.00
-5.01918 44.7986  0.00
0.00 0.00  0.00

94.9281 -0.248943  0.00
-0.248943 64.6945  0.00
0.00 0.00  0.00

9.37844 2.59347  0.00
2.59347 6.9822  0.00
0.00 0.00  0.00

25.7196 6.2464  0.00
6.2464 18.3964  0.00
0.00 0.00  0.00

6.46061 0.732782  0.00
0.732782 4.93068  0.00
0.00 0.00  0.00

195.544 -17.6689  0.00
-17.6689 145.178  0.00
0.00 0.00  0.00

164.483 56.3404  0.00
56.3404 60.854  0.00
0.00 0.00  0.00

224.499 82.1855  0.00
82.1855 45.5603  0.00
0.00 0.00  0.00

326.774 112.624  0.00
112.624 124.851  0.00
0.00 0.00  0.00

33.0013 8.51332  0.00
8.51332 56.4917  0.00
0.00 0.00  0.00


CELL_DATA 4
POINT_DATA 25
TENSORS S Float64
68.0495 111.449  0.00
111.449 471.394  0.00
0.00 0.00  0.00

72.5327 86.5445  0.00
86.5445 345.355  0.00
0.00 0.00  0.00

126.488 175.471  0.00
175.471 740.59  0.00
0.00 0.00  0.00

40.4932 106.351  0.00
106.351 470.68  0.00
0.00 0.00  0.00

106.786 227.765  0.00
227.765 1031.38  0.00
0.00 0.00  0.00

17.7522 51.175  0.00
51.175 217.619  0.00
0.00 0.00  0.00

197.35 167.098  0.00
167.098 631.77  0.00
0.00 0.00  0.00

73.8373 44.2474  0.00
44.2474 66.8623  0.00
0.00 0.00  0.00

62.7348 36.6955  0.00
36.6955 53.5248  0.00
0.00 0.00  0.00

109.473 64.1  0.00
64.1 103.13  0.00
0.00 0.00  0.00

64.6926 41.9634  0.00
41.9634 61.8355  0.00
0.00 0.00  0.00

117.427 78.9742  0.00
78.9742 126.83  0.00
0.00 0.00  0.00

39.3339 24.2485  0.00
24.2485 32.9344  0.00
0.00 0.00  0.00

112.396 62.5899  0.00
62.5899 98.0927  0.00
0.00 0.00  0.00

44.6399 -0.0839202  0.00
-0.0839202 31.4447  0.00
0.00 0.00  0.00

58.9905 -5.01918  0.00
-5.01918 44.7986  0.00
0.00 0.00  0.00

94.9281 -0.248943  0.00
-0.248943 64.6945  0.00
0.00 0.00  0.00

9.37844 2.59347  0.00
2.59347 6.9822  0.00
0.00 0.00  0.00

25.7196 6.2464  0.00
6.2464 18.3964  0.00
0.00 0.00  0.00

6.46061 0.732782  0.00
0.732782 4.93068  0.00
0.00 0.00  0.00

195.544 -17.6689  0.00
-17.6689 145.178  0.00
0.00 0.00  0.00

164.483 56.3404  0.00
56.3404 60.854  0.00
0.00 0.00  0.00

224.499 82.1855  0.00
82.1855 45.5603  0.00
0.00 0.00  0.00

326.774 112.624  0.00
112.624 124.851  0.00
0.00 0.00  0.00

33.0013 8.51332  0.00
8.51332 56.4917  0.00
0.00 0.00  0.00


CELL_DATA 4
POINT_DATA 25
SCALARS ue float
LOOKUP_TABLE default
47684.7
32942
76969.2
48638.1
111274
20390.4
61969.3
2931.66
2349.96
4493.78
2532.11
4776.98
1495.59
4172.08
5041.66
5443.8
11530.6
792.586
2870.42
479.156
18829.3
49013.5
67896.7
97453.5
9387.78

