# vtk DataFile Version 2.0
FEM, Created by Wutzow
ASCII
DATASET UNSTRUCTURED_GRID
POINTS 25 Float64
0 0 0
-24.0007 -23.1284 0
56.7745 48.2827 0
-32.4844 -25.704 0
-116.507 -0.275683 0
179.449 35.7205 0
108.938 95.3433 0
0 0.333333 0
88.5003 0.879621 0
-117.239 -67.4018 0
112.521 91.3658 0
14.8011 -3.70626 0
61.3095 -1.32029 0
-186.587 -164.433 0
0 0.666667 0
-85.9802 4.84465 0
-99.583 10.312 0
-59.7618 -64.7627 0
25.5527 -4.40779 0
-99.9338 -17.2041 0
66.3034 -5.10341 0
0 1 0
-130.738 -31.8595 0
141.615 31.6686 0
-24.0953 -3.08922 0

CELLS 4 44
10 0 3 12 1 2 6 9 8 4 5
10 3 24 12 10 17 20 16 9 6 13
10 24 21 12 23 22 18 15 16 20 19
10 21 0 12 14 7 4 8 15 18 11

CELL_TYPES 4
69
69
69
69

CELL_DATA 4
POINT_DATA 25
VECTORS Y Float64
0 0 0.0
-24.0007 -23.1284 0.0
56.7745 48.2827 0.0
-32.4844 -25.704 0.0
-116.507 -0.275683 0.0
179.449 35.7205 0.0
108.938 95.3433 0.0
0 0.333333 0.0
88.5003 0.879621 0.0
-117.239 -67.4018 0.0
112.521 91.3658 0.0
14.8011 -3.70626 0.0
61.3095 -1.32029 0.0
-186.587 -164.433 0.0
0 0.666667 0.0
-85.9802 4.84465 0.0
-99.583 10.312 0.0
-59.7618 -64.7627 0.0
25.5527 -4.40779 0.0
-99.9338 -17.2041 0.0
66.3034 -5.10341 0.0
0 1 0.0
-130.738 -31.8595 0.0
141.615 31.6686 0.0
-24.0953 -3.08922 0.0

CELL_DATA 4
POINT_DATA 25
VECTORS U Float64
0 0 0.0
-24.3341 -23.1284 0.0
56.1078 48.2827 0.0
-33.4844 -25.704 0.0
-116.674 -0.44235 0.0
178.949 35.5538 0.0
108.104 95.1766 0.0
0 0 0.0
88.167 0.546287 0.0
-117.906 -67.7351 0.0
111.521 91.0325 0.0
14.6344 -4.20626 0.0
60.8095 -1.82029 0.0
-187.42 -164.933 0.0
0 0 0.0
-86.3136 4.17798 0.0
-100.25 9.64533 0.0
-60.7618 -65.4294 0.0
25.386 -5.24112 0.0
-100.434 -18.0375 0.0
65.47 -5.93675 0.0
0 0 0.0
-131.071 -32.8595 0.0
140.948 30.6686 0.0
-25.0953 -4.08922 0.0

CELL_DATA 4
POINT_DATA 25
TENSORS E Float64
1.60974 1.55453  0.00
1.55453 0.0788087  0.00
0.00 0.00  0.00

1.6957 1.94823  0.00
1.94823 0.913724  0.00
0.00 0.00  0.00

3.14198 3.07375  0.00
3.07375 0.793833  0.00
0.00 0.00  0.00

1.0722 0.798311  0.00
0.798311 -0.722669  0.00
0.00 0.00  0.00

2.83519 1.95095  0.00
1.95095 -1.39671  0.00
0.00 0.00  0.00

0.429757 0.369194  0.00
0.369194 -0.352951  0.00
0.00 0.00  0.00

5.24056 6.35527  0.00
6.35527 4.66448  0.00
0.00 0.00  0.00

4.68161 2.2274  0.00
2.2274 0.355334  0.00
0.00 0.00  0.00

5.72514 2.30173  0.00
2.30173 0.301508  0.00
0.00 0.00  0.00

8.71255 4.39832  0.00
4.39832 1.71557  0.00
0.00 0.00  0.00

1.90907 1.03478  0.00
1.03478 -0.674663  0.00
0.00 0.00  0.00

3.79646 2.44691  0.00
2.44691 -0.78377  0.00
0.00 0.00  0.00

1.29558 0.549095  0.00
0.549095 -0.426613  0.00
0.00 0.00  0.00

16.4857 6.94273  0.00
6.94273 2.64803  0.00
0.00 0.00  0.00

-0.0453287 0.152817  0.00
0.152817 1.68402  0.00
0.00 0.00  0.00

-0.0645614 0.72666  0.00
0.72666 1.24055  0.00
0.00 0.00  0.00

0.608202 0.342909  0.00
0.342909 3.08277  0.00
0.00 0.00  0.00

-0.102405 -0.343773  0.00
-0.343773 1.69801  0.00
0.00 0.00  0.00

0.767331 -1.1874  0.00
-1.1874 4.54649  0.00
0.00 0.00  0.00

-0.466381 0.0684001  0.00
0.0684001 0.529169  0.00
0.00 0.00  0.00

1.59246 2.58647  0.00
2.58647 3.30546  0.00
0.00 0.00  0.00

-0.34098 0.159025  0.00
0.159025 1.95512  0.00
0.00 0.00  0.00

-0.224193 0.417346  0.00
0.417346 2.07947  0.00
0.00 0.00  0.00

-0.0572738 0.720781  0.00
0.720781 2.93453  0.00
0.00 0.00  0.00

-0.304243 -0.123625  0.00
-0.123625 1.35926  0.00
0.00 0.00  0.00


CELL_DATA 4
POINT_DATA 25
TENSORS S Float64
1.60974 1.55453  0.00
1.55453 0.0788087  0.00
0.00 0.00  0.00

1.6957 1.94823  0.00
1.94823 0.913724  0.00
0.00 0.00  0.00

3.14198 3.07375  0.00
3.07375 0.793833  0.00
0.00 0.00  0.00

1.0722 0.798311  0.00
0.798311 -0.722669  0.00
0.00 0.00  0.00

2.83519 1.95095  0.00
1.95095 -1.39671  0.00
0.00 0.00  0.00

0.429757 0.369194  0.00
0.369194 -0.352951  0.00
0.00 0.00  0.00

5.24056 6.35527  0.00
6.35527 4.66448  0.00
0.00 0.00  0.00

4.68161 2.2274  0.00
2.2274 0.355334  0.00
0.00 0.00  0.00

5.72514 2.30173  0.00
2.30173 0.301508  0.00
0.00 0.00  0.00

8.71255 4.39832  0.00
4.39832 1.71557  0.00
0.00 0.00  0.00

1.90907 1.03478  0.00
1.03478 -0.674663  0.00
0.00 0.00  0.00

3.79646 2.44691  0.00
2.44691 -0.78377  0.00
0.00 0.00  0.00

1.29558 0.549095  0.00
0.549095 -0.426613  0.00
0.00 0.00  0.00

16.4857 6.94273  0.00
6.94273 2.64803  0.00
0.00 0.00  0.00

-0.0453287 0.152817  0.00
0.152817 1.68402  0.00
0.00 0.00  0.00

-0.0645614 0.72666  0.00
0.72666 1.24055  0.00
0.00 0.00  0.00

0.608202 0.342909  0.00
0.342909 3.08277  0.00
0.00 0.00  0.00

-0.102405 -0.343773  0.00
-0.343773 1.69801  0.00
0.00 0.00  0.00

0.767331 -1.1874  0.00
-1.1874 4.54649  0.00
0.00 0.00  0.00

-0.466381 0.0684001  0.00
0.0684001 0.529169  0.00
0.00 0.00  0.00

1.59246 2.58647  0.00
2.58647 3.30546  0.00
0.00 0.00  0.00

-0.34098 0.159025  0.00
0.159025 1.95512  0.00
0.00 0.00  0.00

-0.224193 0.417346  0.00
0.417346 2.07947  0.00
0.00 0.00  0.00

-0.0572738 0.720781  0.00
0.720781 2.93453  0.00
0.00 0.00  0.00

-0.304243 -0.123625  0.00
-0.123625 1.35926  0.00
0.00 0.00  0.00


CELL_DATA 4
POINT_DATA 25
SCALARS ue float
LOOKUP_TABLE default
6.64763
10.4706
14.5645
1.22641
3.45666
0.836718
37.5887
29.3149
20.3879
67.2491
6.24429
21.0317
2.90458
68.3545
4.25189
4.47191
8.94836
3.12546
9.06426
0.671943
16.3648
3.51477
4.89246
7.29097
1.39298

