# vtk DataFile Version 2.0
FEM, Created by Wutzow
ASCII
DATASET UNSTRUCTURED_GRID
POINTS 10 double
0 0 0
nan nan 0
0 3 0
nan nan 0
nan nan 0
0 6 0
nan 8 0
nan nan 0
inf inf 0
0 9 0

CELLS 1 11
10 0 6 9 1 3 7 8 5 2 4

CELL_TYPES 1
69

CELL_DATA 1
POINT_DATA 10
SCALARS Y1 float
LOOKUP_TABLE default
0
nan
0
nan
nan
0
nan
nan
inf
0

CELL_DATA 1
POINT_DATA 10
SCALARS Y2 float
LOOKUP_TABLE default
0
nan
3
nan
nan
6
8
nan
inf
9

CELL_DATA 1
POINT_DATA 10
SCALARS U1 float
LOOKUP_TABLE default
0
nan
0
nan
nan
0
nan
nan
inf
0

CELL_DATA 1
POINT_DATA 10
SCALARS U2 float
LOOKUP_TABLE default
0
nan
0
nan
nan
0
-1
nan
inf
0

CELL_DATA 1
POINT_DATA 10
SCALARS E00 float
LOOKUP_TABLE default
-0.123697
-0.158982
0.301136
-0.123697
0
0
0
0
0
0

CELL_DATA 1
POINT_DATA 10
SCALARS E01 float
LOOKUP_TABLE default
-0.0199962
-0.180031
0.338855
-0.0199962
0
0
0
0
0
0

CELL_DATA 1
POINT_DATA 10
SCALARS E10 float
LOOKUP_TABLE default
-0.0199962
-0.180031
0.338855
-0.0199962
0
0
0
0
0
0

CELL_DATA 1
POINT_DATA 10
SCALARS E11 float
LOOKUP_TABLE default
0.262745
0.0917203
-0.216801
0.262745
0
0
0
0
0
0

CELL_DATA 1
POINT_DATA 10
SCALARS S00 float
LOOKUP_TABLE default
-0.123697
-0.158982
0.301136
-0.123697
0
0
0
0
0
0

CELL_DATA 1
POINT_DATA 10
SCALARS S01 float
LOOKUP_TABLE default
-0.0199962
-0.180031
0.338855
-0.0199962
0
0
0
0
0
0

CELL_DATA 1
POINT_DATA 10
SCALARS S10 float
LOOKUP_TABLE default
-0.0199962
-0.180031
0.338855
-0.0199962
0
0
0
0
0
0

CELL_DATA 1
POINT_DATA 10
SCALARS S11 float
LOOKUP_TABLE default
0.262745
0.0917203
-0.216801
0.262745
0
0
0
0
0
0

CELL_DATA 1
POINT_DATA 10
SCALARS ue float
LOOKUP_TABLE default
-0.0244335
-0.0745605
0.154389
-0.0244335
0
0
0
0
0
0

