# vtk DataFile Version 2.0
FEM, Created by Wutzow
ASCII
DATASET UNSTRUCTURED_GRID
POINTS 10 double
0 0 0
3.02763 1.87849 0
0 3 0
6.04934 7.80424 0
2.76194 5.63729 0
0 6 0
8.61227 8 0
5.99152 9.15497 0
3.04866 9.33246 0
0 9 0

CELLS 1 11
10 0 6 9 1 3 7 8 5 2 4

CELL_TYPES 1
69

CELL_DATA 1
POINT_DATA 10
SCALARS Y1 float
LOOKUP_TABLE default
0
3.02763
0
6.04934
2.76194
0
8.61227
5.99152
3.04866
0

CELL_DATA 1
POINT_DATA 10
SCALARS Y2 float
LOOKUP_TABLE default
0
1.87849
3
7.80424
5.63729
6
8
9.15497
9.33246
9

CELL_DATA 1
POINT_DATA 10
SCALARS U1 float
LOOKUP_TABLE default
0
0.0276334
0
0.0493412
-0.238056
0
-0.387729
-0.00847799
0.0486641
0

CELL_DATA 1
POINT_DATA 10
SCALARS U2 float
LOOKUP_TABLE default
0
-1.12151
0
1.80424
-0.362714
0
-1
0.154966
0.332463
0

CELL_DATA 1
POINT_DATA 10
SCALARS E00 float
LOOKUP_TABLE default
-0.192045
-0.109353
1.02524
0.111111
0
0
0
0
0
0

CELL_DATA 1
POINT_DATA 10
SCALARS E01 float
LOOKUP_TABLE default
-0.179724
-0.131112
1.02242
0.111111
0
0
0
0
0
0

CELL_DATA 1
POINT_DATA 10
SCALARS E10 float
LOOKUP_TABLE default
-0.179724
-0.131112
1.02242
0.111111
0
0
0
0
0
0

CELL_DATA 1
POINT_DATA 10
SCALARS E11 float
LOOKUP_TABLE default
-0.192
-0.108571
1.02333
0.111111
0
0
0
0
0
0

CELL_DATA 1
POINT_DATA 10
SCALARS S00 float
LOOKUP_TABLE default
-0.192045
-0.109353
1.02524
0.111111
0
0
0
0
0
0

CELL_DATA 1
POINT_DATA 10
SCALARS S01 float
LOOKUP_TABLE default
-0.179724
-0.131112
1.02242
0.111111
0
0
0
0
0
0

CELL_DATA 1
POINT_DATA 10
SCALARS S10 float
LOOKUP_TABLE default
-0.179724
-0.131112
1.02242
0.111111
0
0
0
0
0
0

CELL_DATA 1
POINT_DATA 10
SCALARS S11 float
LOOKUP_TABLE default
-0.192
-0.108571
1.02333
0.111111
0
0
0
0
0
0

CELL_DATA 1
POINT_DATA 10
SCALARS ue float
LOOKUP_TABLE default
-0.192023
-0.108963
1.02429
0.111111
0
0
0
0
0
0

